box.lammps - created by mBuild; units = real

3300 atoms
2200 bonds
1100 angles
0 dihedrals
0 impropers

2 atom types
1 bond types
1 angle types

0.000000 33.215730 xlo xhi
0.000000 33.148360 ylo yhi
0.000000 33.108910 zlo zhi
0.000000 0.000000 0.000000 xy xz yz

Masses

1	15.999430	# opls-116
2	1.007947	# opls-117

Pair Coeffs # lj
#	epsilon (kcal/mol)		sigma (Angstrom)
1	0.15540		3.16557		# opls-116
2	0.00000		0.00000		# opls-117

Bond Coeffs # harmonic
#	k(kcal/mol/angstrom^2)		req(angstrom)
1	412.285		1.0		# opls-116	opls-117

Angle Coeffs # harmonic
#	k(kcal/mol/rad^2)		theteq(deg)
1	45.77		109.47000	# opls-117	opls-116	opls-117

Atoms # full

1	0	1	-0.847600	24.863387	12.872296	20.088994
2	0	2	0.423800	25.863387	12.872296	20.088994
3	0	2	0.423800	24.530074	13.815112	20.088994
4	0	1	-0.847600	13.170016	15.436789	14.007585
5	0	2	0.423800	14.170016	15.436789	14.007585
6	0	2	0.423800	12.836703	16.379605	14.007585
7	0	1	-0.847600	18.348825	26.935296	16.447963
8	0	2	0.423800	19.348825	26.935296	16.447963
9	0	2	0.423800	18.015512	27.878112	16.447963
10	0	1	-0.847600	17.614880	27.308991	3.444617
11	0	2	0.423800	18.614880	27.308991	3.444617
12	0	2	0.423800	17.281567	28.251807	3.444617
13	0	1	-0.847600	3.079119	29.144297	23.532680
14	0	2	0.423800	4.079119	29.144297	23.532680
15	0	2	0.423800	2.745806	30.087113	23.532680
16	0	1	-0.847600	12.299370	6.232116	27.894109
17	0	2	0.423800	13.299370	6.232116	27.894109
18	0	2	0.423800	11.966057	7.174932	27.894109
19	0	1	-0.847600	29.075477	25.302534	22.982787
20	0	2	0.423800	30.075477	25.302534	22.982787
21	0	2	0.423800	28.742164	26.245350	22.982787
22	0	1	-0.847600	15.824590	9.844842	19.255624
23	0	2	0.423800	16.824590	9.844842	19.255624
24	0	2	0.423800	15.491277	10.787658	19.255624
25	0	1	-0.847600	14.610746	27.707162	27.936451
26	0	2	0.423800	15.610746	27.707162	27.936451
27	0	2	0.423800	14.277433	28.649978	27.936451
28	0	1	-0.847600	27.641350	15.894586	25.890405
29	0	2	0.423800	28.641350	15.894586	25.890405
30	0	2	0.423800	27.308037	16.837402	25.890405
31	0	1	-0.847600	5.875280	4.748676	3.899610
32	0	2	0.423800	6.875280	4.748676	3.899610
33	0	2	0.423800	5.541967	5.691492	3.899610
34	0	1	-0.847600	22.339869	26.836310	14.280737
35	0	2	0.423800	23.339869	26.836310	14.280737
36	0	2	0.423800	22.006556	27.779126	14.280737
37	0	1	-0.847600	27.490943	2.186122	3.023112
38	0	2	0.423800	28.490943	2.186122	3.023112
39	0	2	0.423800	27.157630	3.128938	3.023112
40	0	1	-0.847600	25.740930	21.002665	7.993063
41	0	2	0.423800	26.740930	21.002665	7.993063
42	0	2	0.423800	25.407617	21.945481	7.993063
43	0	1	-0.847600	9.693797	23.538335	3.991311
44	0	2	0.423800	10.693797	23.538335	3.991311
45	0	2	0.423800	9.360484	24.481151	3.991311
46	0	1	-0.847600	9.027076	5.162516	4.091997
47	0	2	0.423800	10.027076	5.162516	4.091997
48	0	2	0.423800	8.693763	6.105332	4.091997
49	0	1	-0.847600	4.244503	24.276285	19.887970
50	0	2	0.423800	5.244503	24.276285	19.887970
51	0	2	0.423800	3.911190	25.219101	19.887970
52	0	1	-0.847600	15.162145	10.986522	17.076650
53	0	2	0.423800	16.162145	10.986522	17.076650
54	0	2	0.423800	14.828832	11.929338	17.076650
55	0	1	-0.847600	10.358449	11.960248	28.781658
56	0	2	0.423800	11.358449	11.960248	28.781658
57	0	2	0.423800	10.025136	12.903064	28.781658
58	0	1	-0.847600	7.953034	20.756740	29.762768
59	0	2	0.423800	8.953034	20.756740	29.762768
60	0	2	0.423800	7.619721	21.699556	29.762768
61	0	1	-0.847600	28.435675	11.489627	1.996736
62	0	2	0.423800	29.435675	11.489627	1.996736
63	0	2	0.423800	28.102362	12.432443	1.996736
64	0	1	-0.847600	3.351773	2.708930	7.731006
65	0	2	0.423800	4.351773	2.708930	7.731006
66	0	2	0.423800	3.018460	3.651746	7.731006
67	0	1	-0.847600	3.505510	15.871481	16.248542
68	0	2	0.423800	4.505510	15.871481	16.248542
69	0	2	0.423800	3.172197	16.814297	16.248542
70	0	1	-0.847600	22.421492	8.889417	14.907494
71	0	2	0.423800	23.421492	8.889417	14.907494
72	0	2	0.423800	22.088179	9.832233	14.907494
73	0	1	-0.847600	16.139160	13.755613	6.888654
74	0	2	0.423800	17.139160	13.755613	6.888654
75	0	2	0.423800	15.805847	14.698429	6.888654
76	0	1	-0.847600	25.095471	6.255981	17.649813
77	0	2	0.423800	26.095471	6.255981	17.649813
78	0	2	0.423800	24.762158	7.198797	17.649813
79	0	1	-0.847600	13.115897	14.749578	9.770856
80	0	2	0.423800	14.115897	14.749578	9.770856
81	0	2	0.423800	12.782584	15.692394	9.770856
82	0	1	-0.847600	16.169921	23.182242	27.899041
83	0	2	0.423800	17.169921	23.182242	27.899041
84	0	2	0.423800	15.836608	24.125058	27.899041
85	0	1	-0.847600	21.369371	21.629328	1.999439
86	0	2	0.423800	22.369371	21.629328	1.999439
87	0	2	0.423800	21.036058	22.572144	1.999439
88	0	1	-0.847600	28.513252	13.150225	23.307764
89	0	2	0.423800	29.513252	13.150225	23.307764
90	0	2	0.423800	28.179939	14.093041	23.307764
91	0	1	-0.847600	28.623521	12.089692	20.692845
92	0	2	0.423800	29.623521	12.089692	20.692845
93	0	2	0.423800	28.290208	13.032508	20.692845
94	0	1	-0.847600	3.422838	26.391976	1.999466
95	0	2	0.423800	4.422838	26.391976	1.999466
96	0	2	0.423800	3.089525	27.334792	1.999466
97	0	1	-0.847600	2.330802	7.189596	13.762356
98	0	2	0.423800	3.330802	7.189596	13.762356
99	0	2	0.423800	1.997489	8.132412	13.762356
100	0	1	-0.847600	23.962557	26.067332	2.208825
101	0	2	0.423800	24.962557	26.067332	2.208825
102	0	2	0.423800	23.629244	27.010148	2.208825
103	0	1	-0.847600	7.486858	9.238354	18.668748
104	0	2	0.423800	8.486858	9.238354	18.668748
105	0	2	0.423800	7.153545	10.181170	18.668748
106	0	1	-0.847600	7.822354	17.474705	4.144082
107	0	2	0.423800	8.822354	17.474705	4.144082
108	0	2	0.423800	7.489041	18.417521	4.144082
109	0	1	-0.847600	6.968652	17.005947	1.999746
110	0	2	0.423800	7.968652	17.005947	1.999746
111	0	2	0.423800	6.635339	17.948763	1.999746
112	0	1	-0.847600	8.390574	29.146638	11.368281
113	0	2	0.423800	9.390574	29.146638	11.368281
114	0	2	0.423800	8.057261	30.089454	11.368281
115	0	1	-0.847600	14.164944	26.566578	9.737453
116	0	2	0.423800	15.164944	26.566578	9.737453
117	0	2	0.423800	13.831631	27.509394	9.737453
118	0	1	-0.847600	14.596793	25.953877	4.186234
119	0	2	0.423800	15.596793	25.953877	4.186234
120	0	2	0.423800	14.263480	26.896693	4.186234
121	0	1	-0.847600	25.240014	17.215754	27.932083
122	0	2	0.423800	26.240014	17.215754	27.932083
123	0	2	0.423800	24.906701	18.158570	27.932083
124	0	1	-0.847600	2.319577	17.789135	12.064024
125	0	2	0.423800	3.319577	17.789135	12.064024
126	0	2	0.423800	1.986264	18.731951	12.064024
127	0	1	-0.847600	18.021622	6.759222	20.322878
128	0	2	0.423800	19.021622	6.759222	20.322878
129	0	2	0.423800	17.688309	7.702038	20.322878
130	0	1	-0.847600	11.670715	3.288947	10.229918
131	0	2	0.423800	12.670715	3.288947	10.229918
132	0	2	0.423800	11.337402	4.231763	10.229918
133	0	1	-0.847600	15.696142	29.128662	15.209590
134	0	2	0.423800	16.696142	29.128662	15.209590
135	0	2	0.423800	15.362829	30.071478	15.209590
136	0	1	-0.847600	16.886538	14.593507	29.985513
137	0	2	0.423800	17.886538	14.593507	29.985513
138	0	2	0.423800	16.553225	15.536323	29.985513
139	0	1	-0.847600	8.887755	11.690475	5.500437
140	0	2	0.423800	9.887755	11.690475	5.500437
141	0	2	0.423800	8.554442	12.633291	5.500437
142	0	1	-0.847600	2.287554	23.120806	10.736321
143	0	2	0.423800	3.287554	23.120806	10.736321
144	0	2	0.423800	1.954241	24.063622	10.736321
145	0	1	-0.847600	21.747560	4.606661	25.036885
146	0	2	0.423800	22.747560	4.606661	25.036885
147	0	2	0.423800	21.414247	5.549477	25.036885
148	0	1	-0.847600	22.504121	7.937151	21.712105
149	0	2	0.423800	23.504121	7.937151	21.712105
150	0	2	0.423800	22.170808	8.879967	21.712105
151	0	1	-0.847600	25.057023	4.811567	25.830249
152	0	2	0.423800	26.057023	4.811567	25.830249
153	0	2	0.423800	24.723710	5.754383	25.830249
154	0	1	-0.847600	21.980398	7.623896	6.255781
155	0	2	0.423800	22.980398	7.623896	6.255781
156	0	2	0.423800	21.647085	8.566712	6.255781
157	0	1	-0.847600	26.228733	26.002405	6.399376
158	0	2	0.423800	27.228733	26.002405	6.399376
159	0	2	0.423800	25.895420	26.945221	6.399376
160	0	1	-0.847600	16.048234	21.714237	20.033876
161	0	2	0.423800	17.048234	21.714237	20.033876
162	0	2	0.423800	15.714921	22.657053	20.033876
163	0	1	-0.847600	14.666496	14.798506	23.673275
164	0	2	0.423800	15.666496	14.798506	23.673275
165	0	2	0.423800	14.333183	15.741322	23.673275
166	0	1	-0.847600	9.888112	18.720627	7.633154
167	0	2	0.423800	10.888112	18.720627	7.633154
168	0	2	0.423800	9.554799	19.663443	7.633154
169	0	1	-0.847600	13.386642	4.744302	4.129566
170	0	2	0.423800	14.386642	4.744302	4.129566
171	0	2	0.423800	13.053329	5.687118	4.129566
172	0	1	-0.847600	29.069889	2.003865	27.129246
173	0	2	0.423800	30.069889	2.003865	27.129246
174	0	2	0.423800	28.736576	2.946681	27.129246
175	0	1	-0.847600	11.445365	20.086539	30.082540
176	0	2	0.423800	12.445365	20.086539	30.082540
177	0	2	0.423800	11.112052	21.029355	30.082540
178	0	1	-0.847600	5.067988	19.417224	23.799662
179	0	2	0.423800	6.067988	19.417224	23.799662
180	0	2	0.423800	4.734675	20.360040	23.799662
181	0	1	-0.847600	9.488157	11.130957	24.562621
182	0	2	0.423800	10.488157	11.130957	24.562621
183	0	2	0.423800	9.154844	12.073773	24.562621
184	0	1	-0.847600	18.585982	23.735542	25.503207
185	0	2	0.423800	19.585982	23.735542	25.503207
186	0	2	0.423800	18.252669	24.678358	25.503207
187	0	1	-0.847600	6.505434	5.195505	19.137790
188	0	2	0.423800	7.505434	5.195505	19.137790
189	0	2	0.423800	6.172121	6.138321	19.137790
190	0	1	-0.847600	26.113802	20.292727	15.129924
191	0	2	0.423800	27.113802	20.292727	15.129924
192	0	2	0.423800	25.780489	21.235543	15.129924
193	0	1	-0.847600	4.830168	29.144784	30.071796
194	0	2	0.423800	5.830168	29.144784	30.071796
195	0	2	0.423800	4.496855	30.087600	30.071796
196	0	1	-0.847600	12.669139	18.859137	18.682821
197	0	2	0.423800	13.669139	18.859137	18.682821
198	0	2	0.423800	12.335826	19.801953	18.682821
199	0	1	-0.847600	19.443215	28.091991	20.477342
200	0	2	0.423800	20.443215	28.091991	20.477342
201	0	2	0.423800	19.109902	29.034807	20.477342
202	0	1	-0.847600	26.414881	12.437545	14.473039
203	0	2	0.423800	27.414881	12.437545	14.473039
204	0	2	0.423800	26.081568	13.380361	14.473039
205	0	1	-0.847600	26.765102	28.172584	2.354214
206	0	2	0.423800	27.765102	28.172584	2.354214
207	0	2	0.423800	26.431789	29.115400	2.354214
208	0	1	-0.847600	19.062762	11.644257	26.429355
209	0	2	0.423800	20.062762	11.644257	26.429355
210	0	2	0.423800	18.729449	12.587073	26.429355
211	0	1	-0.847600	29.100682	15.509881	8.760532
212	0	2	0.423800	30.100682	15.509881	8.760532
213	0	2	0.423800	28.767369	16.452697	8.760532
214	0	1	-0.847600	9.734328	23.610842	15.529360
215	0	2	0.423800	10.734328	23.610842	15.529360
216	0	2	0.423800	9.401015	24.553658	15.529360
217	0	1	-0.847600	29.074153	15.319378	6.250346
218	0	2	0.423800	30.074153	15.319378	6.250346
219	0	2	0.423800	28.740840	16.262194	6.250346
220	0	1	-0.847600	24.876606	24.283262	27.003177
221	0	2	0.423800	25.876606	24.283262	27.003177
222	0	2	0.423800	24.543293	25.226078	27.003177
223	0	1	-0.847600	26.227004	9.231346	13.797059
224	0	2	0.423800	27.227004	9.231346	13.797059
225	0	2	0.423800	25.893691	10.174162	13.797059
226	0	1	-0.847600	8.611014	19.509341	15.680501
227	0	2	0.423800	9.611014	19.509341	15.680501
228	0	2	0.423800	8.277701	20.452157	15.680501
229	0	1	-0.847600	17.392834	23.613224	18.981503
230	0	2	0.423800	18.392834	23.613224	18.981503
231	0	2	0.423800	17.059521	24.556040	18.981503
232	0	1	-0.847600	3.794019	29.129213	27.872144
233	0	2	0.423800	4.794019	29.129213	27.872144
234	0	2	0.423800	3.460706	30.072029	27.872144
235	0	1	-0.847600	13.706235	24.529892	17.288132
236	0	2	0.423800	14.706235	24.529892	17.288132
237	0	2	0.423800	13.372922	25.472708	17.288132
238	0	1	-0.847600	24.325017	15.922646	26.155205
239	0	2	0.423800	25.325017	15.922646	26.155205
240	0	2	0.423800	23.991704	16.865462	26.155205
241	0	1	-0.847600	16.201487	4.738508	23.257660
242	0	2	0.423800	17.201487	4.738508	23.257660
243	0	2	0.423800	15.868174	5.681324	23.257660
244	0	1	-0.847600	21.592209	9.268848	27.797234
245	0	2	0.423800	22.592209	9.268848	27.797234
246	0	2	0.423800	21.258896	10.211664	27.797234
247	0	1	-0.847600	15.715702	26.074433	20.534688
248	0	2	0.423800	16.715702	26.074433	20.534688
249	0	2	0.423800	15.382389	27.017249	20.534688
250	0	1	-0.847600	11.697006	13.939798	20.100636
251	0	2	0.423800	12.697006	13.939798	20.100636
252	0	2	0.423800	11.363693	14.882614	20.100636
253	0	1	-0.847600	28.616995	12.333663	16.312269
254	0	2	0.423800	29.616995	12.333663	16.312269
255	0	2	0.423800	28.283682	13.276479	16.312269
256	0	1	-0.847600	2.323943	18.072847	22.913523
257	0	2	0.423800	3.323943	18.072847	22.913523
258	0	2	0.423800	1.990630	19.015663	22.913523
259	0	1	-0.847600	13.787759	25.471707	29.287146
260	0	2	0.423800	14.787759	25.471707	29.287146
261	0	2	0.423800	13.454446	26.414523	29.287146
262	0	1	-0.847600	20.053543	4.171721	9.083878
263	0	2	0.423800	21.053543	4.171721	9.083878
264	0	2	0.423800	19.720230	5.114537	9.083878
265	0	1	-0.847600	11.398310	19.630526	14.404181
266	0	2	0.423800	12.398310	19.630526	14.404181
267	0	2	0.423800	11.064997	20.573342	14.404181
268	0	1	-0.847600	10.585919	24.212775	18.366071
269	0	2	0.423800	11.585919	24.212775	18.366071
270	0	2	0.423800	10.252606	25.155591	18.366071
271	0	1	-0.847600	27.255456	28.572594	26.689108
272	0	2	0.423800	28.255456	28.572594	26.689108
273	0	2	0.423800	26.922143	29.515410	26.689108
274	0	1	-0.847600	2.318695	1.993111	13.832140
275	0	2	0.423800	3.318695	1.993111	13.832140
276	0	2	0.423800	1.985382	2.935927	13.832140
277	0	1	-0.847600	10.148048	27.065042	9.535646
278	0	2	0.423800	11.148048	27.065042	9.535646
279	0	2	0.423800	9.814735	28.007858	9.535646
280	0	1	-0.847600	21.408703	14.206010	19.660847
281	0	2	0.423800	22.408703	14.206010	19.660847
282	0	2	0.423800	21.075390	15.148826	19.660847
283	0	1	-0.847600	25.997834	11.932009	12.144858
284	0	2	0.423800	26.997834	11.932009	12.144858
285	0	2	0.423800	25.664521	12.874825	12.144858
286	0	1	-0.847600	3.131035	5.345847	26.671777
287	0	2	0.423800	4.131035	5.345847	26.671777
288	0	2	0.423800	2.797722	6.288663	26.671777
289	0	1	-0.847600	3.500614	15.776083	18.817570
290	0	2	0.423800	4.500614	15.776083	18.817570
291	0	2	0.423800	3.167301	16.718899	18.817570
292	0	1	-0.847600	13.996466	7.479696	8.974668
293	0	2	0.423800	14.996466	7.479696	8.974668
294	0	2	0.423800	13.663153	8.422512	8.974668
295	0	1	-0.847600	2.317090	1.991479	30.074554
296	0	2	0.423800	3.317090	1.991479	30.074554
297	0	2	0.423800	1.983777	2.934295	30.074554
298	0	1	-0.847600	17.832528	26.779167	11.421902
299	0	2	0.423800	18.832528	26.779167	11.421902
300	0	2	0.423800	17.499215	27.721983	11.421902
301	0	1	-0.847600	13.633901	24.535082	15.089418
302	0	2	0.423800	14.633901	24.535082	15.089418
303	0	2	0.423800	13.300588	25.477898	15.089418
304	0	1	-0.847600	11.999209	2.274597	19.222582
305	0	2	0.423800	12.999209	2.274597	19.222582
306	0	2	0.423800	11.665896	3.217413	19.222582
307	0	1	-0.847600	13.465748	19.447832	22.958831
308	0	2	0.423800	14.465748	19.447832	22.958831
309	0	2	0.423800	13.132435	20.390648	22.958831
310	0	1	-0.847600	2.326891	13.928531	17.494489
311	0	2	0.423800	3.326891	13.928531	17.494489
312	0	2	0.423800	1.993578	14.871347	17.494489
313	0	1	-0.847600	25.672442	8.174833	21.992114
314	0	2	0.423800	26.672442	8.174833	21.992114
315	0	2	0.423800	25.339129	9.117649	21.992114
316	0	1	-0.847600	16.582620	18.651242	20.584199
317	0	2	0.423800	17.582620	18.651242	20.584199
318	0	2	0.423800	16.249307	19.594058	20.584199
319	0	1	-0.847600	6.839614	2.504527	7.234065
320	0	2	0.423800	7.839614	2.504527	7.234065
321	0	2	0.423800	6.506301	3.447343	7.234065
322	0	1	-0.847600	16.048185	21.762935	10.924701
323	0	2	0.423800	17.048185	21.762935	10.924701
324	0	2	0.423800	15.714872	22.705751	10.924701
325	0	1	-0.847600	9.161913	25.671691	7.834023
326	0	2	0.423800	10.161913	25.671691	7.834023
327	0	2	0.423800	8.828600	26.614507	7.834023
328	0	1	-0.847600	3.465177	26.011821	23.337433
329	0	2	0.423800	4.465177	26.011821	23.337433
330	0	2	0.423800	3.131864	26.954637	23.337433
331	0	1	-0.847600	18.338513	29.128524	8.290337
332	0	2	0.423800	19.338513	29.128524	8.290337
333	0	2	0.423800	18.005200	30.071340	8.290337
334	0	1	-0.847600	2.323930	22.026126	23.534557
335	0	2	0.423800	3.323930	22.026126	23.534557
336	0	2	0.423800	1.990617	22.968942	23.534557
337	0	1	-0.847600	3.419635	5.688818	21.748784
338	0	2	0.423800	4.419635	5.688818	21.748784
339	0	2	0.423800	3.086322	6.631634	21.748784
340	0	1	-0.847600	6.765423	22.497402	4.153741
341	0	2	0.423800	7.765423	22.497402	4.153741
342	0	2	0.423800	6.432110	23.440218	4.153741
343	0	1	-0.847600	25.121998	7.870957	19.860340
344	0	2	0.423800	26.121998	7.870957	19.860340
345	0	2	0.423800	24.788685	8.813773	19.860340
346	0	1	-0.847600	8.598450	11.399861	9.587600
347	0	2	0.423800	9.598450	11.399861	9.587600
348	0	2	0.423800	8.265137	12.342677	9.587600
349	0	1	-0.847600	15.203916	12.486612	30.076041
350	0	2	0.423800	16.203916	12.486612	30.076041
351	0	2	0.423800	14.870603	13.429428	30.076041
352	0	1	-0.847600	6.836799	24.718324	1.995303
353	0	2	0.423800	7.836799	24.718324	1.995303
354	0	2	0.423800	6.503486	25.661140	1.995303
355	0	1	-0.847600	11.616916	17.817488	10.311744
356	0	2	0.423800	12.616916	17.817488	10.311744
357	0	2	0.423800	11.283603	18.760304	10.311744
358	0	1	-0.847600	11.126983	10.971584	7.513026
359	0	2	0.423800	12.126983	10.971584	7.513026
360	0	2	0.423800	10.793670	11.914400	7.513026
361	0	1	-0.847600	18.136865	17.306090	27.947671
362	0	2	0.423800	19.136865	17.306090	27.947671
363	0	2	0.423800	17.803552	18.248906	27.947671
364	0	1	-0.847600	12.374162	10.821801	18.659533
365	0	2	0.423800	13.374162	10.821801	18.659533
366	0	2	0.423800	12.040849	11.764617	18.659533
367	0	1	-0.847600	2.362567	25.398245	13.355119
368	0	2	0.423800	3.362567	25.398245	13.355119
369	0	2	0.423800	2.029254	26.341061	13.355119
370	0	1	-0.847600	9.475112	23.966083	27.967421
371	0	2	0.423800	10.475112	23.966083	27.967421
372	0	2	0.423800	9.141799	24.908899	27.967421
373	0	1	-0.847600	23.047110	20.769993	30.070028
374	0	2	0.423800	24.047110	20.769993	30.070028
375	0	2	0.423800	22.713797	21.712809	30.070028
376	0	1	-0.847600	6.022040	11.195561	14.251136
377	0	2	0.423800	7.022040	11.195561	14.251136
378	0	2	0.423800	5.688727	12.138377	14.251136
379	0	1	-0.847600	6.385820	26.268486	27.928552
380	0	2	0.423800	7.385820	26.268486	27.928552
381	0	2	0.423800	6.052507	27.211302	27.928552
382	0	1	-0.847600	14.707373	8.216182	30.077970
383	0	2	0.423800	15.707373	8.216182	30.077970
384	0	2	0.423800	14.374060	9.158998	30.077970
385	0	1	-0.847600	16.311073	2.035643	24.557840
386	0	2	0.423800	17.311073	2.035643	24.557840
387	0	2	0.423800	15.977760	2.978459	24.557840
388	0	1	-0.847600	27.447172	13.098813	18.499476
389	0	2	0.423800	28.447172	13.098813	18.499476
390	0	2	0.423800	27.113859	14.041629	18.499476
391	0	1	-0.847600	21.736451	13.915929	6.142889
392	0	2	0.423800	22.736451	13.915929	6.142889
393	0	2	0.423800	21.403138	14.858745	6.142889
394	0	1	-0.847600	23.103004	1.995168	8.475052
395	0	2	0.423800	24.103004	1.995168	8.475052
396	0	2	0.423800	22.769691	2.937984	8.475052
397	0	1	-0.847600	2.329981	27.000677	27.423055
398	0	2	0.423800	3.329981	27.000677	27.423055
399	0	2	0.423800	1.996668	27.943493	27.423055
400	0	1	-0.847600	5.938259	1.989610	17.910945
401	0	2	0.423800	6.938259	1.989610	17.910945
402	0	2	0.423800	5.604946	2.932426	17.910945
403	0	1	-0.847600	19.570070	3.975658	22.062833
404	0	2	0.423800	20.570070	3.975658	22.062833
405	0	2	0.423800	19.236757	4.918474	22.062833
406	0	1	-0.847600	10.705069	16.517982	15.932489
407	0	2	0.423800	11.705069	16.517982	15.932489
408	0	2	0.423800	10.371756	17.460798	15.932489
409	0	1	-0.847600	9.029835	23.644711	25.557528
410	0	2	0.423800	10.029835	23.644711	25.557528
411	0	2	0.423800	8.696522	24.587527	25.557528
412	0	1	-0.847600	7.594119	3.771209	10.589431
413	0	2	0.423800	8.594119	3.771209	10.589431
414	0	2	0.423800	7.260806	4.714025	10.589431
415	0	1	-0.847600	21.974611	7.417401	18.913373
416	0	2	0.423800	22.974611	7.417401	18.913373
417	0	2	0.423800	21.641298	8.360217	18.913373
418	0	1	-0.847600	7.531328	26.401487	17.529518
419	0	2	0.423800	8.531328	26.401487	17.529518
420	0	2	0.423800	7.198015	27.344303	17.529518
421	0	1	-0.847600	11.280061	26.758436	11.941803
422	0	2	0.423800	12.280061	26.758436	11.941803
423	0	2	0.423800	10.946748	27.701252	11.941803
424	0	1	-0.847600	26.288133	26.174536	24.631877
425	0	2	0.423800	27.288133	26.174536	24.631877
426	0	2	0.423800	25.954820	27.117352	24.631877
427	0	1	-0.847600	2.334816	12.706527	7.586916
428	0	2	0.423800	3.334816	12.706527	7.586916
429	0	2	0.423800	2.001503	13.649343	7.586916
430	0	1	-0.847600	11.822349	19.321957	16.540635
431	0	2	0.423800	12.822349	19.321957	16.540635
432	0	2	0.423800	11.489036	20.264773	16.540635
433	0	1	-0.847600	2.313020	13.489383	22.096758
434	0	2	0.423800	3.313020	13.489383	22.096758
435	0	2	0.423800	1.979707	14.432199	22.096758
436	0	1	-0.847600	25.868027	8.229954	6.103803
437	0	2	0.423800	26.868027	8.229954	6.103803
438	0	2	0.423800	25.534714	9.172770	6.103803
439	0	1	-0.847600	25.423853	3.452383	9.456994
440	0	2	0.423800	26.423853	3.452383	9.456994
441	0	2	0.423800	25.090540	4.395199	9.456994
442	0	1	-0.847600	12.335319	4.975023	8.415817
443	0	2	0.423800	13.335319	4.975023	8.415817
444	0	2	0.423800	12.002006	5.917839	8.415817
445	0	1	-0.847600	22.813664	10.342764	10.269870
446	0	2	0.423800	23.813664	10.342764	10.269870
447	0	2	0.423800	22.480351	11.285580	10.269870
448	0	1	-0.847600	5.714168	13.610428	12.616486
449	0	2	0.423800	6.714168	13.610428	12.616486
450	0	2	0.423800	5.380855	14.553244	12.616486
451	0	1	-0.847600	10.261118	1.989907	6.575174
452	0	2	0.423800	11.261118	1.989907	6.575174
453	0	2	0.423800	9.927805	2.932723	6.575174
454	0	1	-0.847600	7.732931	17.329484	25.127641
455	0	2	0.423800	8.732931	17.329484	25.127641
456	0	2	0.423800	7.399618	18.272300	25.127641
457	0	1	-0.847600	27.226765	10.415507	22.063883
458	0	2	0.423800	28.226765	10.415507	22.063883
459	0	2	0.423800	26.893452	11.358323	22.063883
460	0	1	-0.847600	28.214743	21.980207	16.031820
461	0	2	0.423800	29.214743	21.980207	16.031820
462	0	2	0.423800	27.881430	22.923023	16.031820
463	0	1	-0.847600	22.092157	9.311093	29.938993
464	0	2	0.423800	23.092157	9.311093	29.938993
465	0	2	0.423800	21.758844	10.253909	29.938993
466	0	1	-0.847600	19.874060	21.159035	16.190694
467	0	2	0.423800	20.874060	21.159035	16.190694
468	0	2	0.423800	19.540747	22.101851	16.190694
469	0	1	-0.847600	6.207796	21.610640	18.674442
470	0	2	0.423800	7.207796	21.610640	18.674442
471	0	2	0.423800	5.874483	22.553456	18.674442
472	0	1	-0.847600	16.311581	21.793131	17.328548
473	0	2	0.423800	17.311581	21.793131	17.328548
474	0	2	0.423800	15.978268	22.735947	17.328548
475	0	1	-0.847600	28.661409	4.635971	4.133158
476	0	2	0.423800	29.661409	4.635971	4.133158
477	0	2	0.423800	28.328096	5.578787	4.133158
478	0	1	-0.847600	15.777844	3.957274	7.796057
479	0	2	0.423800	16.777844	3.957274	7.796057
480	0	2	0.423800	15.444531	4.900090	7.796057
481	0	1	-0.847600	16.465227	10.364795	9.977900
482	0	2	0.423800	17.465227	10.364795	9.977900
483	0	2	0.423800	16.131914	11.307611	9.977900
484	0	1	-0.847600	2.333176	13.524951	1.999994
485	0	2	0.423800	3.333176	13.524951	1.999994
486	0	2	0.423800	1.999863	14.467767	1.999994
487	0	1	-0.847600	28.650751	12.602093	4.272340
488	0	2	0.423800	29.650751	12.602093	4.272340
489	0	2	0.423800	28.317438	13.544909	4.272340
490	0	1	-0.847600	5.430373	8.752838	25.768598
491	0	2	0.423800	6.430373	8.752838	25.768598
492	0	2	0.423800	5.097060	9.695654	25.768598
493	0	1	-0.847600	14.895537	17.246065	3.994284
494	0	2	0.423800	15.895537	17.246065	3.994284
495	0	2	0.423800	14.562224	18.188881	3.994284
496	0	1	-0.847600	20.120459	14.288934	26.350861
497	0	2	0.423800	21.120459	14.288934	26.350861
498	0	2	0.423800	19.787146	15.231750	26.350861
499	0	1	-0.847600	22.620860	24.423548	19.800606
500	0	2	0.423800	23.620860	24.423548	19.800606
501	0	2	0.423800	22.287547	25.366364	19.800606
502	0	1	-0.847600	28.580902	16.173618	30.063588
503	0	2	0.423800	29.580902	16.173618	30.063588
504	0	2	0.423800	28.247589	17.116434	30.063588
505	0	1	-0.847600	14.843615	7.988234	16.648576
506	0	2	0.423800	15.843615	7.988234	16.648576
507	0	2	0.423800	14.510302	8.931050	16.648576
508	0	1	-0.847600	29.101645	7.457313	21.367456
509	0	2	0.423800	30.101645	7.457313	21.367456
510	0	2	0.423800	28.768332	8.400129	21.367456
511	0	1	-0.847600	8.778644	18.808733	23.499930
512	0	2	0.423800	9.778644	18.808733	23.499930
513	0	2	0.423800	8.445331	19.751549	23.499930
514	0	1	-0.847600	25.094847	26.446467	12.059111
515	0	2	0.423800	26.094847	26.446467	12.059111
516	0	2	0.423800	24.761534	27.389283	12.059111
517	0	1	-0.847600	26.913880	17.949706	7.393552
518	0	2	0.423800	27.913880	17.949706	7.393552
519	0	2	0.423800	26.580567	18.892522	7.393552
520	0	1	-0.847600	2.325258	6.783492	24.348576
521	0	2	0.423800	3.325258	6.783492	24.348576
522	0	2	0.423800	1.991945	7.726308	24.348576
523	0	1	-0.847600	17.888831	8.649694	16.099935
524	0	2	0.423800	18.888831	8.649694	16.099935
525	0	2	0.423800	17.555518	9.592510	16.099935
526	0	1	-0.847600	27.391955	1.999432	25.036624
527	0	2	0.423800	28.391955	1.999432	25.036624
528	0	2	0.423800	27.058642	2.942248	25.036624
529	0	1	-0.847600	15.551124	22.233226	6.658255
530	0	2	0.423800	16.551124	22.233226	6.658255
531	0	2	0.423800	15.217811	23.176042	6.658255
532	0	1	-0.847600	16.264942	24.048866	8.407829
533	0	2	0.423800	17.264942	24.048866	8.407829
534	0	2	0.423800	15.931629	24.991682	8.407829
535	0	1	-0.847600	2.312460	8.802394	22.014769
536	0	2	0.423800	3.312460	8.802394	22.014769
537	0	2	0.423800	1.979147	9.745210	22.014769
538	0	1	-0.847600	23.391893	4.726925	7.356387
539	0	2	0.423800	24.391893	4.726925	7.356387
540	0	2	0.423800	23.058580	5.669741	7.356387
541	0	1	-0.847600	28.510951	22.305427	7.908665
542	0	2	0.423800	29.510951	22.305427	7.908665
543	0	2	0.423800	28.177638	23.248243	7.908665
544	0	1	-0.847600	7.987085	21.994764	27.121340
545	0	2	0.423800	8.987085	21.994764	27.121340
546	0	2	0.423800	7.653772	22.937580	27.121340
547	0	1	-0.847600	22.384465	23.683748	28.940745
548	0	2	0.423800	23.384465	23.683748	28.940745
549	0	2	0.423800	22.051152	24.626564	28.940745
550	0	1	-0.847600	24.740959	27.286044	4.087028
551	0	2	0.423800	25.740959	27.286044	4.087028
552	0	2	0.423800	24.407646	28.228860	4.087028
553	0	1	-0.847600	29.071537	7.325189	8.308152
554	0	2	0.423800	30.071537	7.325189	8.308152
555	0	2	0.423800	28.738224	8.268005	8.308152
556	0	1	-0.847600	15.430515	25.365690	6.298912
557	0	2	0.423800	16.430515	25.365690	6.298912
558	0	2	0.423800	15.097202	26.308506	6.298912
559	0	1	-0.847600	19.699433	23.945194	8.724667
560	0	2	0.423800	20.699433	23.945194	8.724667
561	0	2	0.423800	19.366120	24.888010	8.724667
562	0	1	-0.847600	5.364873	12.906392	10.540775
563	0	2	0.423800	6.364873	12.906392	10.540775
564	0	2	0.423800	5.031560	13.849208	10.540775
565	0	1	-0.847600	22.301957	21.817553	7.373857
566	0	2	0.423800	23.301957	21.817553	7.373857
567	0	2	0.423800	21.968644	22.760369	7.373857
568	0	1	-0.847600	2.368584	25.250991	25.398349
569	0	2	0.423800	3.368584	25.250991	25.398349
570	0	2	0.423800	2.035271	26.193807	25.398349
571	0	1	-0.847600	21.695001	14.670686	1.999502
572	0	2	0.423800	22.695001	14.670686	1.999502
573	0	2	0.423800	21.361688	15.613502	1.999502
574	0	1	-0.847600	18.129631	7.074278	10.041964
575	0	2	0.423800	19.129631	7.074278	10.041964
576	0	2	0.423800	17.796318	8.017094	10.041964
577	0	1	-0.847600	25.926115	2.121341	20.912374
578	0	2	0.423800	26.926115	2.121341	20.912374
579	0	2	0.423800	25.592802	3.064157	20.912374
580	0	1	-0.847600	8.164906	14.460346	30.075064
581	0	2	0.423800	9.164906	14.460346	30.075064
582	0	2	0.423800	7.831593	15.403162	30.075064
583	0	1	-0.847600	9.657374	6.806953	20.535190
584	0	2	0.423800	10.657374	6.806953	20.535190
585	0	2	0.423800	9.324061	7.749769	20.535190
586	0	1	-0.847600	9.253747	25.921558	5.650731
587	0	2	0.423800	10.253747	25.921558	5.650731
588	0	2	0.423800	8.920434	26.864374	5.650731
589	0	1	-0.847600	24.702894	4.777557	2.952916
590	0	2	0.423800	25.702894	4.777557	2.952916
591	0	2	0.423800	24.369581	5.720373	2.952916
592	0	1	-0.847600	3.659798	17.002085	9.868832
593	0	2	0.423800	4.659798	17.002085	9.868832
594	0	2	0.423800	3.326485	17.944901	9.868832
595	0	1	-0.847600	2.314513	22.617859	4.099402
596	0	2	0.423800	3.314513	22.617859	4.099402
597	0	2	0.423800	1.981200	23.560675	4.099402
598	0	1	-0.847600	15.566890	10.009595	22.315710
599	0	2	0.423800	16.566890	10.009595	22.315710
600	0	2	0.423800	15.233577	10.952411	22.315710
601	0	1	-0.847600	6.967000	13.108210	28.033481
602	0	2	0.423800	7.967000	13.108210	28.033481
603	0	2	0.423800	6.633687	14.051026	28.033481
604	0	1	-0.847600	10.425886	3.863201	21.443299
605	0	2	0.423800	11.425886	3.863201	21.443299
606	0	2	0.423800	10.092573	4.806017	21.443299
607	0	1	-0.847600	13.869007	4.942429	1.992616
608	0	2	0.423800	14.869007	4.942429	1.992616
609	0	2	0.423800	13.535694	5.885245	1.992616
610	0	1	-0.847600	11.133059	8.721882	21.520526
611	0	2	0.423800	12.133059	8.721882	21.520526
612	0	2	0.423800	10.799746	9.664698	21.520526
613	0	1	-0.847600	9.471919	14.136291	15.371045
614	0	2	0.423800	10.471919	14.136291	15.371045
615	0	2	0.423800	9.138606	15.079107	15.371045
616	0	1	-0.847600	10.699991	27.431269	21.809849
617	0	2	0.423800	11.699991	27.431269	21.809849
618	0	2	0.423800	10.366678	28.374085	21.809849
619	0	1	-0.847600	16.532544	22.931386	4.572218
620	0	2	0.423800	17.532544	22.931386	4.572218
621	0	2	0.423800	16.199231	23.874202	4.572218
622	0	1	-0.847600	7.110483	29.130752	27.754138
623	0	2	0.423800	8.110483	29.130752	27.754138
624	0	2	0.423800	6.777170	30.073568	27.754138
625	0	1	-0.847600	17.054313	23.258612	21.686992
626	0	2	0.423800	18.054313	23.258612	21.686992
627	0	2	0.423800	16.721000	24.201428	21.686992
628	0	1	-0.847600	26.082660	12.227047	24.699631
629	0	2	0.423800	27.082660	12.227047	24.699631
630	0	2	0.423800	25.749347	13.169863	24.699631
631	0	1	-0.847600	4.511678	9.071276	17.715309
632	0	2	0.423800	5.511678	9.071276	17.715309
633	0	2	0.423800	4.178365	10.014092	17.715309
634	0	1	-0.847600	21.829637	27.115241	18.547413