box.lammps - created by mBuild; units = real

900 atoms
0 bonds
0 angles
0 dihedrals
0 impropers

1 atom types

0.000000 39.980000 xlo xhi
0.000000 39.980000 ylo yhi
0.000000 39.980000 zlo zhi
0.000000 0.000000 0.000000 xy xz yz

Masses

1	16.043000	# CH4

Pair Coeffs # lj
#	epsilon (kcal/mol)		sigma (Angstrom)
1	0.29411		3.73000		# CH4

Atoms # full

1	1	1	0.000000	29.129462	32.100279	18.364873
2	1	1	0.000000	4.155074	2.412342	24.817847
3	1	1	0.000000	13.240655	12.329661	3.420745
4	1	1	0.000000	21.376543	7.082512	12.633198
5	1	1	0.000000	37.420841	12.361260	16.098394
6	1	1	0.000000	23.297207	21.077750	13.190517
7	1	1	0.000000	26.929788	33.301017	16.554073
8	1	1	0.000000	8.235612	4.372707	2.668945
9	1	1	0.000000	25.350548	10.350968	25.901438
10	1	1	0.000000	20.607313	24.825807	37.980000
11	1	1	0.000000	25.591026	21.759678	20.679238
12	1	1	0.000000	32.524873	34.807773	24.667577
13	1	1	0.000000	5.903165	8.040753	5.518823
14	1	1	0.000000	18.573112	3.469938	23.504277
15	1	1	0.000000	4.205382	27.231550	8.856313
16	1	1	0.000000	31.967793	30.196430	3.626802
17	1	1	0.000000	9.752898	13.102246	31.082957
18	1	1	0.000000	17.526492	20.325353	24.810529
19	1	1	0.000000	8.270219	19.535866	18.017504
20	1	1	0.000000	12.248718	37.765971	15.322904
21	1	1	0.000000	31.152922	14.669332	11.943884
22	1	1	0.000000	31.007989	17.158655	2.581124
23	1	1	0.000000	23.015965	19.189546	17.988548
24	1	1	0.000000	26.268320	37.275803	10.949200
25	1	1	0.000000	31.125296	20.308312	37.979842
26	1	1	0.000000	32.960955	17.652752	32.719457
27	1	1	0.000000	12.714341	22.603822	23.961320
28	1	1	0.000000	35.800995	18.951093	33.249750
29	1	1	0.000000	18.035274	2.974601	4.146455
30	1	1	0.000000	20.965085	23.917943	8.840818
31	1	1	0.000000	10.420729	10.558303	23.667116
32	1	1	0.000000	6.991459	32.228139	17.497071
33	1	1	0.000000	31.454852	17.091832	15.464187
34	1	1	0.000000	20.790767	35.124055	5.632128
35	1	1	0.000000	36.267382	37.605294	17.556246
36	1	1	0.000000	30.602633	34.834954	29.159749
37	1	1	0.000000	23.327053	26.987294	9.047832
38	1	1	0.000000	3.267108	37.084304	24.162826
39	1	1	0.000000	16.788455	8.917241	32.001688
40	1	1	0.000000	12.778611	12.176848	11.285918
41	1	1	0.000000	25.040719	34.393124	3.852499
42	1	1	0.000000	15.070609	25.012627	21.357446
43	1	1	0.000000	2.347582	10.233810	22.407665
44	1	1	0.000000	16.332330	22.850843	23.488666
45	1	1	0.000000	6.983087	31.744262	10.294903
46	1	1	0.000000	19.864694	3.738816	5.101288
47	1	1	0.000000	13.718655	9.494221	4.834995
48	1	1	0.000000	35.867095	10.169616	17.124273
49	1	1	0.000000	30.946688	7.342858	4.119791
50	1	1	0.000000	36.453697	36.339927	8.178719
51	1	1	0.000000	31.581002	20.104617	26.272449
52	1	1	0.000000	13.866702	34.479864	16.969603
53	1	1	0.000000	28.687496	23.470095	22.383916
54	1	1	0.000000	2.307680	27.784355	10.514699
55	1	1	0.000000	23.645505	35.058823	13.005724
56	1	1	0.000000	13.128238	23.998686	37.881594
57	1	1	0.000000	16.311627	15.693295	25.081352
58	1	1	0.000000	37.584537	36.787300	36.565891
59	1	1	0.000000	29.079157	7.807212	7.938461
60	1	1	0.000000	2.607060	24.394280	6.815485
61	1	1	0.000000	17.297765	11.179893	16.519478
62	1	1	0.000000	2.048997	22.354519	25.195879
63	1	1	0.000000	33.241847	36.905558	4.840809
64	1	1	0.000000	29.220356	27.531695	21.641453
65	1	1	0.000000	37.364972	25.627912	19.668517
66	1	1	0.000000	35.787977	6.083149	10.875576
67	1	1	0.000000	19.356580	31.387335	2.000601
68	1	1	0.000000	26.165792	20.074538	12.145027
69	1	1	0.000000	11.919305	2.320819	37.324569
70	1	1	0.000000	36.961129	37.802631	25.659946
71	1	1	0.000000	21.477778	25.098153	36.004591
72	1	1	0.000000	16.610398	11.451858	2.000421
73	1	1	0.000000	7.503004	17.420312	8.513656
74	1	1	0.000000	22.965636	23.997420	14.553208
75	1	1	0.000000	33.863737	16.443553	19.200414
76	1	1	0.000000	16.498234	22.002040	3.251818
77	1	1	0.000000	16.503262	14.608827	15.885160
78	1	1	0.000000	19.308474	31.050485	7.626004
79	1	1	0.000000	5.623416	4.774872	18.344977
80	1	1	0.000000	10.721260	17.222856	16.167408
81	1	1	0.000000	3.535020	5.290213	22.744034
82	1	1	0.000000	19.393976	24.519624	12.014742
83	1	1	0.000000	34.894683	18.035245	35.618736
84	1	1	0.000000	17.482825	17.563317	20.355384
85	1	1	0.000000	5.622975	35.176004	13.954879
86	1	1	0.000000	11.705112	2.917964	7.201634
87	1	1	0.000000	8.851869	14.837531	11.843786
88	1	1	0.000000	13.654272	34.246228	19.472177
89	1	1	0.000000	5.498201	11.245297	20.219482
90	1	1	0.000000	17.241833	28.680471	37.069751
91	1	1	0.000000	30.955652	19.226878	35.795237
92	1	1	0.000000	21.887270	3.057179	2.870843
93	1	1	0.000000	24.740277	13.630534	14.614159
94	1	1	0.000000	19.642580	4.280563	26.495892
95	1	1	0.000000	34.418643	5.701301	12.861847
96	1	1	0.000000	12.593411	28.163400	34.819374
97	1	1	0.000000	27.264626	30.723487	33.926256
98	1	1	0.000000	37.082732	2.451450	18.489409
99	1	1	0.000000	22.595638	36.902773	11.817885
100	1	1	0.000000	29.664918	19.368809	2.001637
101	1	1	0.000000	11.135989	16.105693	27.403727
102	1	1	0.000000	9.238336	20.163011	37.979474
103	1	1	0.000000	23.260312	35.265103	15.527941
104	1	1	0.000000	11.726252	10.449484	34.760424
105	1	1	0.000000	16.899007	17.323052	14.477245
106	1	1	0.000000	32.727082	9.499404	20.733772
107	1	1	0.000000	20.634631	34.126006	25.127351
108	1	1	0.000000	30.847486	7.999738	26.704819
109	1	1	0.000000	7.204260	21.303809	37.979900
110	1	1	0.000000	3.548418	16.468214	24.588280
111	1	1	0.000000	2.061320	19.949219	21.568034
112	1	1	0.000000	36.515800	20.935815	19.093696
113	1	1	0.000000	14.075128	10.390488	16.727616
114	1	1	0.000000	35.025057	11.032562	9.427866
115	1	1	0.000000	4.806248	31.982980	24.102933
116	1	1	0.000000	17.256476	30.236660	5.891748
117	1	1	0.000000	35.669111	10.462842	31.679040
118	1	1	0.000000	29.300628	19.967625	33.693284
119	1	1	0.000000	13.872181	12.807825	16.354306
120	1	1	0.000000	25.463661	27.055512	27.493647
121	1	1	0.000000	16.784632	17.672850	17.803354
122	1	1	0.000000	4.248707	26.733020	23.053831
123	1	1	0.000000	10.697248	29.876595	26.762434
124	1	1	0.000000	12.827496	30.785928	11.522986
125	1	1	0.000000	16.000075	36.839047	9.135338
126	1	1	0.000000	16.145507	9.652769	27.581958
127	1	1	0.000000	14.043452	6.208553	21.446556
128	1	1	0.000000	4.600431	16.918441	5.879702
129	1	1	0.000000	19.965002	9.375166	4.422061
130	1	1	0.000000	17.305348	13.813539	3.326963
131	1	1	0.000000	8.358503	7.463724	13.797847
132	1	1	0.000000	13.028891	27.625289	24.209524
133	1	1	0.000000	8.916534	3.732689	32.564401
134	1	1	0.000000	35.067919	26.409393	36.951684
135	1	1	0.000000	20.202451	31.707761	37.012784
136	1	1	0.000000	25.198886	33.752785	31.006318
137	1	1	0.000000	29.745199	16.048198	8.859521
138	1	1	0.000000	13.640913	23.895847	9.201335
139	1	1	0.000000	14.212592	27.280769	15.313822
140	1	1	0.000000	22.659838	34.400129	10.448352
141	1	1	0.000000	27.759989	30.950466	5.861657
142	1	1	0.000000	28.631764	35.868700	26.836067
143	1	1	0.000000	3.172447	13.756225	19.394569
144	1	1	0.000000	33.055547	4.796388	6.305861
145	1	1	0.000000	25.855058	33.220688	21.219315
146	1	1	0.000000	14.604155	11.899722	35.678608
147	1	1	0.000000	16.637635	15.937250	10.844009
148	1	1	0.000000	34.376380	36.513442	8.934859
149	1	1	0.000000	8.903286	23.906999	28.362626
150	1	1	0.000000	25.569828	27.360061	37.783888
151	1	1	0.000000	24.860577	22.909937	32.910632
152	1	1	0.000000	20.192307	12.355758	28.670264
153	1	1	0.000000	12.682945	2.621072	12.362924
154	1	1	0.000000	25.914429	16.762312	18.183736
155	1	1	0.000000	6.078775	7.844961	12.033857
156	1	1	0.000000	12.493582	24.375112	30.200344
157	1	1	0.000000	12.482895	7.268585	17.831101
158	1	1	0.000000	31.328640	7.787322	6.595985
159	1	1	0.000000	6.153775	34.330404	23.040871
160	1	1	0.000000	33.168849	32.032607	23.788316
161	1	1	0.000000	6.388656	18.841871	23.094529
162	1	1	0.000000	24.207605	33.438219	23.030011
163	1	1	0.000000	14.325227	25.818657	4.765555
164	1	1	0.000000	7.685467	8.373513	6.942753
165	1	1	0.000000	36.526135	19.607764	3.618313
166	1	1	0.000000	15.881245	37.424190	23.510528
167	1	1	0.000000	31.547177	24.446330	29.036994
168	1	1	0.000000	18.579899	22.546935	33.307195
169	1	1	0.000000	33.739710	17.778966	3.635990
170	1	1	0.000000	2.672928	22.336664	19.493387
171	1	1	0.000000	17.033431	14.480299	21.375944
172	1	1	0.000000	12.565015	5.241557	11.401629
173	1	1	0.000000	37.979974	13.605742	33.284774
174	1	1	0.000000	22.911897	2.564653	26.986553
175	1	1	0.000000	12.970241	28.117966	22.002944
176	1	1	0.000000	29.590290	7.234308	32.575185
177	1	1	0.000000	3.200841	25.905715	34.993009
178	1	1	0.000000	18.518467	36.930714	23.907467
179	1	1	0.000000	27.084588	22.723092	19.303699
180	1	1	0.000000	26.229025	13.029741	16.338689
181	1	1	0.000000	9.585251	35.311416	34.863462
182	1	1	0.000000	8.718462	26.033258	14.710863
183	1	1	0.000000	29.266247	5.941544	13.512743
184	1	1	0.000000	20.162824	6.182089	5.907592
185	1	1	0.000000	11.671794	20.915849	14.952330
186	1	1	0.000000	28.010474	24.359764	17.502988
187	1	1	0.000000	2.996921	14.541427	10.120338
188	1	1	0.000000	19.336376	25.883259	8.244481
189	1	1	0.000000	4.015844	27.422187	26.542258
190	1	1	0.000000	21.275181	26.957513	9.940745
191	1	1	0.000000	30.206130	18.179961	9.783667
192	1	1	0.000000	35.061047	16.524038	13.131225
193	1	1	0.000000	11.287606	21.265238	37.979305
194	1	1	0.000000	3.471140	5.935606	17.987878
195	1	1	0.000000	12.872569	16.416890	37.147558
196	1	1	0.000000	22.179644	37.783979	14.239144
197	1	1	0.000000	2.335317	7.061286	13.670285
198	1	1	0.000000	22.509816	10.409038	15.207313
199	1	1	0.000000	11.819778	22.212676	6.430200
200	1	1	0.000000	13.405685	18.769981	18.094671
201	1	1	0.000000	23.643663	28.903534	14.579964
202	1	1	0.000000	15.425292	27.848934	32.578604
203	1	1	0.000000	18.067737	25.429791	23.697986
204	1	1	0.000000	10.586489	7.789472	5.383741
205	1	1	0.000000	4.919188	4.021632	21.595926
206	1	1	0.000000	27.777476	14.956489	22.159514
207	1	1	0.000000	19.199380	30.487453	19.127112
208	1	1	0.000000	16.993750	32.251235	30.487528
209	1	1	0.000000	6.555630	28.937399	23.575632
210	1	1	0.000000	24.740635	2.316830	4.089584
211	1	1	0.000000	25.000941	7.053354	34.214256
212	1	1	0.000000	16.861874	8.536140	8.650514
213	1	1	0.000000	13.410288	7.872739	12.629249
214	1	1	0.000000	19.667102	29.384601	37.080061
215	1	1	0.000000	34.014583	16.038802	4.955512
216	1	1	0.000000	19.269701	23.561887	25.603306
217	1	1	0.000000	6.800056	17.204856	26.322626
218	1	1	0.000000	19.949565	6.753022	31.830343
219	1	1	0.000000	20.990143	2.983508	23.845246
220	1	1	0.000000	8.908684	29.784685	12.569966
221	1	1	0.000000	11.082181	33.294402	4.531115
222	1	1	0.000000	17.050101	23.804115	36.152526
223	1	1	0.000000	17.592236	15.693618	23.181450
224	1	1	0.000000	25.024051	10.888779	28.785719
225	1	1	0.000000	37.523850	4.417758	11.388549
226	1	1	0.000000	26.849327	8.175915	14.493440
227	1	1	0.000000	31.608442	3.491199	37.839260
228	1	1	0.000000	4.462444	25.866405	14.006180
229	1	1	0.000000	28.023813	14.109788	25.938850
230	1	1	0.000000	16.348524	3.205531	30.102732
231	1	1	0.000000	35.684941	3.808782	5.322621
232	1	1	0.000000	19.228889	26.495820	11.019105
233	1	1	0.000000	22.915666	26.583039	20.411537
234	1	1	0.000000	8.560744	14.017267	17.942287
235	1	1	0.000000	27.857989	22.493950	5.135240
236	1	1	0.000000	20.453790	34.468359	8.735807
237	1	1	0.000000	5.326292	20.634219	15.306195
238	1	1	0.000000	13.719827	22.846442	20.964496
239	1	1	0.000000	3.159245	33.592665	22.617223
240	1	1	0.000000	30.847807	20.695023	31.146643
241	1	1	0.000000	24.719881	24.606576	20.325130
242	1	1	0.000000	15.148700	29.604833	3.892867
243	1	1	0.000000	23.992457	7.241601	10.964559
244	1	1	0.000000	13.560419	32.090021	30.829345
245	1	1	0.000000	17.182315	12.118109	20.208881
246	1	1	0.000000	12.705558	27.731495	37.118513
247	1	1	0.000000	2.787157	16.462379	35.811211
248	1	1	0.000000	3.076987	13.396502	6.082220
249	1	1	0.000000	26.633425	10.654203	11.299095
250	1	1	0.000000	29.828942	21.541885	22.352832
251	1	1	0.000000	13.233436	10.037977	8.205971
252	1	1	0.000000	10.050318	5.768173	4.106400
253	1	1	0.000000	11.065264	9.601408	6.601820
254	1	1	0.000000	18.734595	9.718385	29.579651
255	1	1	0.000000	6.449868	30.375425	27.512961
256	1	1	0.000000	19.837882	18.488540	13.834212
257	1	1	0.000000	17.308666	7.289252	30.127597
258	1	1	0.000000	3.976945	29.299010	22.780622
259	1	1	0.000000	11.312196	26.186412	33.628589
260	1	1	0.000000	2.788818	27.044130	24.755002
261	1	1	0.000000	19.144072	34.693539	17.548108
262	1	1	0.000000	30.051939	5.251995	5.905155
263	1	1	0.000000	4.129269	10.059319	35.931216
264	1	1	0.000000	32.689687	16.296108	11.230043
265	1	1	0.000000	29.912836	5.942772	21.342409
266	1	1	0.000000	3.042087	22.384846	8.966008
267	1	1	0.000000	5.527941	32.106911	19.136591
268	1	1	0.000000	31.342222	32.371212	11.536969
269	1	1	0.000000	4.266767	5.691737	9.626383
270	1	1	0.000000	32.839751	29.479647	32.191381
271	1	1	0.000000	30.269176	28.312517	29.109684
272	1	1	0.000000	19.478529	10.337089	20.002922
273	1	1	0.000000	26.330638	20.870338	27.699993
274	1	1	0.000000	9.195806	21.984928	14.282879
275	1	1	0.000000	5.958771	15.009804	33.113799
276	1	1	0.000000	5.874879	31.888884	34.493744
277	1	1	0.000000	11.285578	34.122596	17.655812
278	1	1	0.000000	24.391906	28.060828	11.645942
279	1	1	0.000000	27.143695	6.958842	21.780364
280	1	1	0.000000	14.906817	11.441160	8.535948
281	1	1	0.000000	19.334903	2.021945	10.255019
282	1	1	0.000000	22.448526	29.269995	3.488665
283	1	1	0.000000	3.787908	19.794701	28.998920
284	1	1	0.000000	14.373346	4.475048	9.098441
285	1	1	0.000000	27.038523	28.011835	6.467581
286	1	1	0.000000	18.707380	16.354310	8.663063
287	1	1	0.000000	11.289107	21.805065	30.780614
288	1	1	0.000000	2.646681	11.447465	9.466991
289	1	1	0.000000	9.427943	19.998949	15.620825
290	1	1	0.000000	22.080036	36.160357	21.132992
291	1	1	0.000000	36.393218	35.847307	11.559589
292	1	1	0.000000	36.746817	6.144532	8.357763
293	1	1	0.000000	27.138436	31.778713	31.211722
294	1	1	0.000000	33.821289	13.627676	11.947210
295	1	1	0.000000	25.017408	12.666078	9.587938
296	1	1	0.000000	20.728918	30.624411	3.711171
297	1	1	0.000000	17.470284	7.676550	33.845212
298	1	1	0.000000	8.253541	37.456205	32.596005
299	1	1	0.000000	29.269036	12.335922	19.107507
300	1	1	0.000000	33.268582	28.104088	2.459924
301	1	1	0.000000	34.778509	16.051676	10.308967
302	1	1	0.000000	20.756526	10.289717	23.013958
303	1	1	0.000000	29.238371	20.122231	26.539043
304	1	1	0.000000	13.914876	10.291066	11.599888
305	1	1	0.000000	3.022245	5.287790	33.324366
306	1	1	0.000000	29.230863	16.697225	27.800438
307	1	1	0.000000	25.832607	18.221583	15.590925
308	1	1	0.000000	17.116587	25.658558	3.514753
309	1	1	0.000000	28.398391	20.725589	28.503934
310	1	1	0.000000	29.917336	33.857829	9.057302
311	1	1	0.000000	26.985471	27.568096	30.795061
312	1	1	0.000000	17.763686	33.970293	24.883314
313	1	1	0.000000	20.545740	35.235346	2.465800
314	1	1	0.000000	18.059335	18.624170	2.954638
315	1	1	0.000000	18.589134	6.858521	37.979951
316	1	1	0.000000	12.858067	10.053455	36.652995
317	1	1	0.000000	27.932966	4.139372	36.250846
318	1	1	0.000000	37.067686	4.360799	16.224284
319	1	1	0.000000	36.442443	13.360284	36.056282
320	1	1	0.000000	26.418589	18.093417	10.165055
321	1	1	0.000000	21.620775	20.973513	28.220680
322	1	1	0.000000	14.843354	29.436687	11.699359
323	1	1	0.000000	26.007321	3.028710	11.546359
324	1	1	0.000000	19.693723	26.327839	6.015486
325	1	1	0.000000	24.692781	31.335042	2.936026
326	1	1	0.000000	3.928132	7.207934	11.185406
327	1	1	0.000000	5.299348	10.385394	25.523219
328	1	1	0.000000	19.500349	10.968885	31.256298
329	1	1	0.000000	21.405492	36.513714	16.860072
330	1	1	0.000000	23.313106	23.269007	2.718355
331	1	1	0.000000	15.729004	18.993108	2.026688
332	1	1	0.000000	31.140288	14.372879	32.747583
333	1	1	0.000000	31.692739	8.068227	15.230462
334	1	1	0.000000	23.767026	28.281217	28.976795
335	1	1	0.000000	33.818952	7.328164	4.266770
336	1	1	0.000000	32.130241	14.658700	4.192906
337	1	1	0.000000	18.772493	7.194420	26.400923
338	1	1	0.000000	35.763286	36.381895	28.234827
339	1	1	0.000000	33.181547	33.039156	36.374836
340	1	1	0.000000	24.412611	22.979898	22.278440
341	1	1	0.000000	36.160707	7.175125	19.650247
342	1	1	0.000000	36.993632	22.312048	12.068110
343	1	1	0.000000	3.407241	14.862297	22.299780
344	1	1	0.000000	6.695969	37.978743	22.883652
345	1	1	0.000000	24.209885	33.350657	28.045697
346	1	1	0.000000	29.516274	20.082537	19.531871
347	1	1	0.000000	2.637329	20.624861	10.897898
348	1	1	0.000000	37.811779	25.527273	6.782993
349	1	1	0.000000	18.165335	27.891352	24.354848
350	1	1	0.000000	15.966407	18.089666	26.053173
351	1	1	0.000000	3.487271	33.648062	13.060628
352	1	1	0.000000	19.176761	5.852546	3.779699
353	1	1	0.000000	36.249852	28.686234	27.548431
354	1	1	0.000000	26.649358	14.975081	4.482226
355	1	1	0.000000	27.170843	20.009537	31.272835
356	1	1	0.000000	11.150579	13.280245	34.369969
357	1	1	0.000000	37.577548	26.759469	12.807033
358	1	1	0.000000	30.210882	6.915863	28.687341
359	1	1	0.000000	6.976058	22.680356	28.030785
360	1	1	0.000000	21.067677	13.070540	19.988668
361	1	1	0.000000	33.925569	31.444499	33.326470
362	1	1	0.000000	24.756891	7.595625	24.085924
363	1	1	0.000000	18.736103	13.852196	24.601552
364	1	1	0.000000	21.431575	18.140479	10.815290
365	1	1	0.000000	13.986246	22.225265	10.817276
366	1	1	0.000000	29.694938	13.039868	10.316641
367	1	1	0.000000	32.751862	37.469765	33.810601
368	1	1	0.000000	19.077705	9.256283	34.343058
369	1	1	0.000000	14.312841	19.144299	24.215426
370	1	1	0.000000	31.738643	35.510006	34.648747
371	1	1	0.000000	2.592757	18.206505	14.157507
372	1	1	0.000000	8.235123	33.379794	21.080401
373	1	1	0.000000	27.085371	34.795059	28.234733
374	1	1	0.000000	10.917446	6.761400	36.300622
375	1	1	0.000000	34.276553	36.717860	30.307483
376	1	1	0.000000	26.354696	6.891118	11.510594
377	1	1	0.000000	9.313097	13.578733	2.395255
378	1	1	0.000000	14.416252	9.138617	23.671113
379	1	1	0.000000	30.125181	25.965840	23.077442
380	1	1	0.000000	32.427617	28.054182	28.585142
381	1	1	0.000000	7.958420	14.754234	8.656914
382	1	1	0.000000	16.515357	17.989684	5.671174
383	1	1	0.000000	35.187006	32.255970	20.757988
384	1	1	0.000000	21.046611	8.704105	30.186235
385	1	1	0.000000	7.612663	37.394029	19.832444
386	1	1	0.000000	31.841286	11.010820	12.894512
387	1	1	0.000000	4.380948	30.675024	20.983609
388	1	1	0.000000	9.917822	6.903217	8.996708
389	1	1	0.000000	27.829228	31.190232	8.754234
390	1	1	0.000000	9.744763	18.392098	13.968351
391	1	1	0.000000	3.149296	5.232101	11.926291
392	1	1	0.000000	5.706594	17.221781	16.141811
393	1	1	0.000000	14.951103	30.851198	6.048912
394	1	1	0.000000	27.680555	34.574838	8.395892
395	1	1	0.000000	2.001663	36.494792	37.275002
396	1	1	0.000000	21.271665	29.684862	30.655256
397	1	1	0.000000	37.668301	9.784417	22.300437
398	1	1	0.000000	13.377451	12.861215	9.280930
399	1	1	0.000000	6.831445	6.330066	21.344555
400	1	1	0.000000	15.595407	26.377820	25.228773
401	1	1	0.000000	32.545965	14.802938	26.673008
402	1	1	0.000000	13.613528	20.586057	16.738929
403	1	1	0.000000	21.424225	34.885487	19.463202
404	1	1	0.000000	22.756306	33.068134	3.146689
405	1	1	0.000000	3.420175	36.565625	31.658282
406	1	1	0.000000	15.351173	7.185905	34.881374
407	1	1	0.000000	37.702056	33.333685	29.380027
408	1	1	0.000000	19.615273	11.835566	24.634728
409	1	1	0.000000	18.474073	34.784385	35.351508
410	1	1	0.000000	32.878034	19.350568	30.841162
411	1	1	0.000000	9.190334	6.277392	6.222583
412	1	1	0.000000	29.155686	34.398327	16.924907
413	1	1	0.000000	34.282454	2.654356	2.443637
414	1	1	0.000000	33.822939	26.644572	10.081009
415	1	1	0.000000	10.559013	30.468731	4.510784
416	1	1	0.000000	12.237776	7.025570	4.034768
417	1	1	0.000000	6.124526	28.933752	25.813157
418	1	1	0.000000	18.714098	11.506622	21.704136
419	1	1	0.000000	12.217028	15.135412	35.063110
420	1	1	0.000000	7.024883	26.393006	37.171844
421	1	1	0.000000	35.561724	13.403758	2.020114
422	1	1	0.000000	6.049517	4.803394	11.483013
423	1	1	0.000000	7.543792	22.358191	21.200202
424	1	1	0.000000	29.551904	9.551645	18.269022
425	1	1	0.000000	22.734146	17.185811	8.679996
426	1	1	0.000000	30.844150	10.553261	21.646653
427	1	1	0.000000	18.038917	21.802517	11.026007
428	1	1	0.000000	21.899705	26.849766	34.165573
429	1	1	0.000000	24.857066	28.880571	4.595017
430	1	1	0.000000	36.809101	16.722649	30.215907
431	1	1	0.000000	35.045958	14.480990	27.053242
432	1	1	0.000000	5.132241	33.504921	4.394982
433	1	1	0.000000	3.913889	8.914300	17.241790
434	1	1	0.000000	28.751947	33.830042	2.499185
435	1	1	0.000000	9.982633	13.467994	24.765253
436	1	1	0.000000	7.981911	21.077379	5.712282
437	1	1	0.000000	7.376446	22.810924	2.430183
438	1	1	0.000000	10.813984	35.608314	14.698417
439	1	1	0.000000	17.168952	33.714251	10.552121
440	1	1	0.000000	18.666203	31.569361	4.844109
441	1	1	0.000000	32.738360	23.051943	34.306397
442	1	1	0.000000	3.469706	23.637734	16.587063
443	1	1	0.000000	22.131369	8.123789	26.098928
444	1	1	0.000000	14.504840	4.244890	14.130667
445	1	1	0.000000	19.929257	36.884196	20.271423
446	1	1	0.000000	19.230585	19.118447	36.817989
447	1	1	0.000000	10.185206	14.549508	8.387999
448	1	1	0.000000	2.110481	29.762925	13.675088
449	1	1	0.000000	26.147258	7.862521	31.453084
450	1	1	0.000000	27.850316	8.806943	27.510439
451	1	1	0.000000	31.712065	5.092275	30.331863
452	1	1	0.000000	28.163029	11.323488	9.402728
453	1	1	0.000000	32.412469	32.702610	8.750017
454	1	1	0.000000	20.188056	28.994940	27.618911
455	1	1	0.000000	18.562714	18.489955	30.171810
456	1	1	0.000000	10.669733	23.901172	11.582714
457	1	1	0.000000	15.715853	6.932140	5.648880
458	1	1	0.000000	37.130364	5.010922	33.494183
459	1	1	0.000000	14.858389	27.535740	37.535258
460	1	1	0.000000	3.922438	25.982576	31.892207
461	1	1	0.000000	12.448699	15.359231	32.763439
462	1	1	0.000000	23.870093	30.584260	30.455207
463	1	1	0.000000	8.161533	5.246655	24.800972
464	1	1	0.000000	34.848064	25.231920	18.942184
465	1	1	0.000000	4.324032	35.068946	37.979966
466	1	1	0.000000	14.861084	24.416950	23.965443
467	1	1	0.000000	24.489355	33.872379	25.277404
468	1	1	0.000000	34.349161	15.193900	16.941807
469	1	1	0.000000	35.191242	36.250179	3.192196
470	1	1	0.000000	24.352047	15.662005	33.806454
471	1	1	0.000000	37.357363	18.541065	10.697159
472	1	1	0.000000	12.284403	27.829136	19.471970
473	1	1	0.000000	36.025127	19.559076	7.436164
474	1	1	0.000000	30.393955	31.907815	33.719167
475	1	1	0.000000	33.728944	9.248156	17.588699
476	1	1	0.000000	11.200975	25.469681	19.450079
477	1	1	0.000000	23.169847	30.013803	24.382677
478	1	1	0.000000	2.395144	36.906396	35.147990
479	1	1	0.000000	17.107554	31.417635	22.039439
480	1	1	0.000000	29.790912	18.283084	32.326505
481	1	1	0.000000	19.862342	6.890016	29.459474
482	1	1	0.000000	26.026817	11.544408	33.785551
483	1	1	0.000000	19.232047	32.419762	27.187893
484	1	1	0.000000	13.270914	15.162061	25.055287
485	1	1	0.000000	37.407160	16.102079	19.592508
486	1	1	0.000000	4.046258	24.344598	30.143848
487	1	1	0.000000	17.067060	32.559750	36.333224
488	1	1	0.000000	25.134528	5.223976	12.268765
489	1	1	0.000000	15.195975	25.335467	17.591071
490	1	1	0.000000	11.070762	31.793350	23.219616
491	1	1	0.000000	35.438559	35.676557	33.542515
492	1	1	0.000000	3.985781	3.346284	15.882664
493	1	1	0.000000	12.668247	34.262197	12.960704
494	1	1	0.000000	25.816565	18.244397	23.415440
495	1	1	0.000000	31.845882	13.044944	15.396906
496	1	1	0.000000	7.990291	8.906169	34.884687
497	1	1	0.000000	5.898745	20.334348	25.204763
498	1	1	0.000000	16.384251	8.260313	10.949258
499	1	1	0.000000	4.237146	2.213842	37.847396
500	1	1	0.000000	20.834297	34.170500	15.093766
501	1	1	0.000000	13.999031	30.927219	20.068204
502	1	1	0.000000	15.333545	4.995306	25.057748
503	1	1	0.000000	16.289052	23.771804	29.084249
504	1	1	0.000000	3.172232	17.986546	23.039728
505	1	1	0.000000	32.211970	9.704184	27.678979
506	1	1	0.000000	19.161680	26.146039	26.682027
507	1	1	0.000000	8.678038	3.717218	11.410650
508	1	1	0.000000	20.028148	28.818041	12.753811
509	1	1	0.000000	12.222274	32.227542	8.711852
510	1	1	0.000000	3.070590	31.850653	29.478361
511	1	1	0.000000	24.638181	35.615781	8.925436
512	1	1	0.000000	4.678558	29.114788	29.681054
513	1	1	0.000000	5.286010	6.855344	25.369180
514	1	1	0.000000	7.275438	29.328565	5.458714
515	1	1	0.000000	31.458100	7.690156	24.002289
516	1	1	0.000000	11.169156	13.811821	11.566065
517	1	1	0.000000	18.376149	17.004879	36.284076
518	1	1	0.000000	8.809814	31.049813	3.157878
519	1	1	0.000000	13.086942	24.345261	12.489078
520	1	1	0.000000	14.358858	14.426107	12.244091
521	1	1	0.000000	21.743186	19.871388	35.598675
522	1	1	0.000000	16.983183	11.805949	24.352260
523	1	1	0.000000	3.103209	31.381342	15.754250
524	1	1	0.000000	11.228216	29.615781	36.781678
525	1	1	0.000000	28.168105	26.035935	37.236397
526	1	1	0.000000	6.921487	13.191353	20.070308
527	1	1	0.000000	5.656696	33.994239	36.598125
528	1	1	0.000000	18.868725	8.554783	36.607274
529	1	1	0.000000	20.458130	4.252948	29.255607
530	1	1	0.000000	35.710160	16.622715	24.761602
531	1	1	0.000000	26.273500	17.722110	7.248490
532	1	1	0.000000	29.020237	3.855050	10.494380
533	1	1	0.000000	2.816531	34.525704	32.797084
534	1	1	0.000000	7.417854	2.113275	22.211579
535	1	1	0.000000	25.097008	6.619015	27.150731
536	1	1	0.000000	16.596043	20.962644	22.012299
537	1	1	0.000000	11.149955	26.289336	31.029054
538	1	1	0.000000	10.786454	3.993814	13.420318
539	1	1	0.000000	27.534673	9.662408	22.185450
540	1	1	0.000000	10.354004	34.436884	22.851582
541	1	1	0.000000	15.410312	32.890166	15.922665
542	1	1	0.000000	34.135882	32.514501	31.298912
543	1	1	0.000000	2.739348	17.888935	11.370112
544	1	1	0.000000	12.897280	26.169802	20.971184
545	1	1	0.000000	3.417369	17.646321	27.513323
546	1	1	0.000000	31.582715	11.550763	5.747768
547	1	1	0.000000	32.292773	5.201513	13.303998
548	1	1	0.000000	15.087084	6.388866	11.592258
549	1	1	0.000000	29.375980	13.394988	14.571576
550	1	1	0.000000	8.454208	15.232613	15.541346
551	1	1	0.000000	13.418135	2.139310	9.582768
552	1	1	0.000000	9.251076	20.787358	33.348684
553	1	1	0.000000	33.207898	12.850128	28.253135
554	1	1	0.000000	35.521958	28.168536	18.635160
555	1	1	0.000000	25.865897	11.769651	36.367383
556	1	1	0.000000	25.967024	26.398182	20.810912
557	1	1	0.000000	7.782231	27.578708	25.307349
558	1	1	0.000000	20.520725	29.402962	21.719151
559	1	1	0.000000	36.113870	6.699193	5.458564
560	1	1	0.000000	18.598007	5.025041	9.012748
561	1	1	0.000000	19.963722	12.847119	10.894073
562	1	1	0.000000	2.646794	14.462244	3.118293
563	1	1	0.000000	36.827554	16.254318	6.401971
564	1	1	0.000000	8.437579	13.033073	33.433995
565	1	1	0.000000	20.595047	24.161015	4.571279
566	1	1	0.000000	27.051179	17.451515	33.360639
567	1	1	0.000000	27.588635	31.783659	27.081118
568	1	1	0.000000	34.300827	22.384456	36.308895
569	1	1	0.000000	18.604521	7.511924	20.615586
570	1	1	0.000000	37.849672	9.845421	27.305723
571	1	1	0.000000	11.879835	23.389489	28.050753
572	1	1	0.000000	32.159283	34.427633	15.774353
573	1	1	0.000000	34.833877	20.120545	9.980266
574	1	1	0.000000	4.396412	9.743100	31.918652
575	1	1	0.000000	24.329725	11.104058	19.593268
576	1	1	0.000000	34.528161	2.482370	31.044060
577	1	1	0.000000	19.792503	29.094766	6.515809
578	1	1	0.000000	22.935916	30.334825	9.582441
579	1	1	0.000000	4.034506	12.808744	29.747594
580	1	1	0.000000	30.473455	6.131543	11.137488
581	1	1	0.000000	37.475486	28.187241	9.511080
582	1	1	0.000000	9.684520	28.739579	34.890252
583	1	1	0.000000	26.642001	29.696075	36.414130
584	1	1	0.000000	33.503945	33.989368	4.082872
585	1	1	0.000000	37.547863	9.711309	8.957679
586	1	1	0.000000	17.790585	33.208419	7.662414
587	1	1	0.000000	26.026670	29.746749	9.990694
588	1	1	0.000000	6.554398	17.994352	11.890209
589	1	1	0.000000	27.536862	28.218570	10.515157
590	1	1	0.000000	3.977774	32.333460	31.715910
591	1	1	0.000000	28.822322	17.648542	4.173301
592	1	1	0.000000	25.111373	9.650807	13.416813
593	1	1	0.000000	33.899220	2.000009	27.291939
594	1	1	0.000000	7.351192	18.319951	37.065315
595	1	1	0.000000	12.575679	10.625368	27.026463
596	1	1	0.000000	12.854895	33.254831	5.874586
597	1	1	0.000000	32.455732	5.258774	2.584342
598	1	1	0.000000	4.285749	19.731786	12.983541
599	1	1	0.000000	3.325412	28.131607	7.049927
600	1	1	0.000000	17.892058	12.090117	27.064105
601	1	1	0.000000	10.340173	16.505964	35.404637
602	1	1	0.000000	14.079238	6.448524	26.135583
603	1	1	0.000000	16.700480	5.816888	2.000536
604	1	1	0.000000	14.557625	12.567994	28.565610
605	1	1	0.000000	12.590907	16.761808	20.297317
606	1	1	0.000000	13.518625	33.515351	27.564173
607	1	1	0.000000	22.377272	27.624794	6.288963
608	1	1	0.000000	7.062208	34.034047	34.796796
609	1	1	0.000000	21.702567	31.391911	29.173054
610	1	1	0.000000	31.071091	16.456781	30.774579
611	1	1	0.000000	8.069612	11.087862	21.701219
612	1	1	0.000000	27.971756	35.011696	23.771549
613	1	1	0.000000	29.140460	11.285271	12.113902
614	1	1	0.000000	13.250208	29.536244	28.422219
615	1	1	0.000000	7.194552	32.384559	14.855282
616	1	1	0.000000	15.781723	15.638612	3.888707
617	1	1	0.000000	4.850962	30.746150	7.652223
618	1	1	0.000000	13.998384	25.477267	10.813468
619	1	1	0.000000	31.763646	19.287315	17.706596
620	1	1	0.000000	36.428498	3.051214	29.041747
621	1	1	0.000000	36.004920	18.892763	17.065292
622	1	1	0.000000	10.187436	15.844995	29.954370
623	1	1	0.000000	16.742143	6.412121	27.613092
624	1	1	0.000000	26.728893	19.494626	21.457871
625	1	1	0.000000	8.280677	16.757558	31.360222
626	1	1	0.000000	23.601595	17.552736	16.265039
627	1	1	0.000000	23.845684	3.660434	10.925516
628	1	1	0.000000	25.883971	21.060540	5.613860
629	1	1	0.000000	3.182868	11.820018	32.485347
630	1	1	0.000000	22.746200	29.332737	33.108512
631	1	1	0.000000	10.414395	35.384044	31.571550
632	1	1	0.000000	9.398267	2.809598	7.490977
633	1	1	0.000000	5.407881	9.747503	15.858350
634	1	1	0.000000	24.203115	2.803465	21.977122
635	1	1	0.000000	36.774149	29.855719	11.957323
636	1	1	0.000000	21.873692	26.900570	2.530965
637	1	1	0.000000	9.305138	12.406831	7.740466
638	1	1	0.000000	13.991018	2.046111	18.016995
639	1	1	0.000000	20.896343	24.900822	13.949296
640	1	1	0.000000	17.758414	27.636635	2.789319
641	1	1	0.000000	27.932128	8.602141	11.147236
642	1	1	0.000000	37.156329	3.390066	31.277557