box.lammps - created by mBuild; units = real

2400 atoms
2400 bonds
2400 angles
2400 dihedrals
0 impropers

1 atom types
1 bond types
1 angle types
1 dihedral types

0.000000 42.170000 xlo xhi
0.000000 42.170000 ylo yhi
0.000000 42.170000 zlo zhi
0.000000 0.000000 0.000000 xy xz yz

Masses

1	13.019000	# CH_sp2

Pair Coeffs # lj
#	epsilon (kcal/mol)		sigma (Angstrom)
1	0.10035		3.69500		# CH_sp2

Bond Coeffs # harmonic
#	k(kcal/mol/angstrom^2)		req(angstrom)
1	469.0		1.4		# CH_sp2	CH_sp2

Angle Coeffs # harmonic
#	k(kcal/mol/rad^2)		theteq(deg)
1	62.999		120.00000	# CH_sp2	CH_sp2	CH_sp2

Dihedral Coeffs # opls
#	f1(kcal/mol)	f2(kcal/mol)	f3(kcal/mol)	f4(kcal/mol)
1	-0.00000	7.24996		-0.00000		-0.00000	# CH_sp2	CH_sp2	CH_sp2	CH_sp2

Atoms # full

1	1	1	0.000000	33.574218	27.689686	39.643808
2	1	1	0.000000	34.090117	26.498335	40.167766
3	1	1	0.000000	35.418234	26.137778	39.910640
4	1	1	0.000000	36.230444	26.968570	39.129561
5	1	1	0.000000	35.714546	28.159921	38.605603
6	1	1	0.000000	34.386437	28.520480	38.862724
7	1	1	0.000000	25.807997	17.043554	27.305116
8	1	1	0.000000	27.167605	17.301924	27.093669
9	1	1	0.000000	28.069840	16.239525	26.962168
10	1	1	0.000000	27.612464	14.918767	27.042115
11	1	1	0.000000	26.252855	14.660397	27.253563
12	1	1	0.000000	25.350623	15.722786	27.385063
13	1	1	0.000000	28.920936	14.931281	37.567676
14	1	1	0.000000	28.587205	15.195772	38.901343
15	1	1	0.000000	28.998962	14.319866	39.912904
16	1	1	0.000000	29.744446	13.179478	39.590795
17	1	1	0.000000	30.078178	12.914987	38.257128
18	1	1	0.000000	29.666425	13.790884	37.245570
19	1	1	0.000000	18.102606	29.276386	26.324922
20	1	1	0.000000	18.435357	30.621663	26.523689
21	1	1	0.000000	17.436568	31.602128	26.490233
22	1	1	0.000000	16.105039	31.237315	26.258010
23	1	1	0.000000	15.772288	29.892039	26.059243
24	1	1	0.000000	16.771067	28.911576	26.092699
25	1	1	0.000000	29.597784	36.591670	17.279883
26	1	1	0.000000	30.407781	35.751746	16.506297
27	1	1	0.000000	31.604458	36.237072	15.965527
28	1	1	0.000000	31.991133	37.562313	16.198342
29	1	1	0.000000	31.181136	38.402237	16.971928
30	1	1	0.000000	29.984466	37.916919	17.512697
31	1	1	0.000000	11.769662	7.835362	20.607434
32	1	1	0.000000	12.008338	8.834698	19.656455
33	1	1	0.000000	13.287974	9.388042	19.528583
34	1	1	0.000000	14.328925	8.942050	20.351686
35	1	1	0.000000	14.090249	7.942714	21.302665
36	1	1	0.000000	12.810622	7.389370	21.430540
37	1	1	0.000000	7.231620	8.133921	35.596855
38	1	1	0.000000	5.867059	7.952336	35.341904
39	1	1	0.000000	5.430253	6.821787	34.641139
40	1	1	0.000000	6.358006	5.872832	34.195331
41	1	1	0.000000	7.722567	6.054417	34.450282
42	1	1	0.000000	8.159375	7.184957	35.151042
43	1	1	0.000000	37.205678	36.213164	23.912731
44	1	1	0.000000	37.600718	37.525632	24.197984
45	1	1	0.000000	38.093247	37.847996	25.468223
46	1	1	0.000000	38.190733	36.857894	26.453200
47	1	1	0.000000	37.795693	35.545426	26.167948
48	1	1	0.000000	37.303167	35.223059	24.897718
49	1	1	0.000000	31.429403	39.884873	13.794835
50	1	1	0.000000	30.947379	38.644303	13.360511
51	1	1	0.000000	31.768758	37.512437	13.425519
52	1	1	0.000000	33.072153	37.621146	13.924849
53	1	1	0.000000	33.554177	38.861717	14.359173
54	1	1	0.000000	32.732806	39.993578	14.294167
55	1	1	0.000000	26.823189	16.505024	15.816271
56	1	1	0.000000	25.714619	16.338571	16.654940
57	1	1	0.000000	25.876411	15.771823	17.924834
58	1	1	0.000000	27.146768	15.371532	18.356052
59	1	1	0.000000	28.255337	15.537985	17.517382
60	1	1	0.000000	28.093551	16.104729	16.247495
61	1	1	0.000000	31.218778	34.205917	36.468223
62	1	1	0.000000	32.458348	34.798272	36.198812
63	1	1	0.000000	33.611563	34.331448	36.840826
64	1	1	0.000000	33.525205	33.272276	37.752244
65	1	1	0.000000	32.285635	32.679921	38.021655
66	1	1	0.000000	31.132424	33.146738	37.379648
67	1	1	0.000000	17.580870	8.865627	24.517763
68	1	1	0.000000	17.506772	8.326380	23.227909
69	1	1	0.000000	16.259730	8.120801	22.625718
70	1	1	0.000000	15.086796	8.454470	23.313379
71	1	1	0.000000	15.160894	8.993717	24.603233
72	1	1	0.000000	16.407926	9.199296	25.205424
73	1	1	0.000000	9.775193	9.221650	15.881710
74	1	1	0.000000	10.930849	9.950655	15.576733
75	1	1	0.000000	10.883804	11.349008	15.527678
76	1	1	0.000000	9.681108	12.018347	15.783599
77	1	1	0.000000	8.525453	11.289342	16.088576
78	1	1	0.000000	8.572492	9.890997	16.137632
79	1	1	0.000000	19.774660	7.855736	18.225387
80	1	1	0.000000	20.867910	8.711972	18.047445
81	1	1	0.000000	21.049991	9.802513	18.906269
82	1	1	0.000000	20.138825	10.036812	19.943026
83	1	1	0.000000	19.045575	9.180575	20.120968
84	1	1	0.000000	18.863491	8.090040	19.262153
85	1	1	0.000000	24.808898	33.356428	19.565320
86	1	1	0.000000	25.770083	32.417721	19.171681
87	1	1	0.000000	25.440511	31.058054	19.119728
88	1	1	0.000000	24.149760	30.637102	19.461414
89	1	1	0.000000	23.188576	31.575809	19.855053
90	1	1	0.000000	23.518141	32.935469	19.907006
91	1	1	0.000000	4.077131	21.478734	10.615200
92	1	1	0.000000	5.100283	21.212122	11.532848
93	1	1	0.000000	6.087163	22.173916	11.779891
94	1	1	0.000000	6.050887	23.402314	11.109287
95	1	1	0.000000	5.027735	23.668926	10.191639
96	1	1	0.000000	4.040859	22.707141	9.944594
97	1	1	0.000000	13.006968	5.299063	20.076196
98	1	1	0.000000	13.090259	3.901544	20.078514
99	1	1	0.000000	14.341838	3.274945	20.109087
100	1	1	0.000000	15.510115	4.045863	20.137342
101	1	1	0.000000	15.426825	5.443381	20.135024
102	1	1	0.000000	14.175256	6.069981	20.104451
103	1	1	0.000000	18.938664	17.767671	27.726039
104	1	1	0.000000	17.881407	17.595077	26.824696
105	1	1	0.000000	17.184058	18.708998	26.342106
106	1	1	0.000000	17.543966	19.995504	26.760860
107	1	1	0.000000	18.601223	20.168098	27.662203
108	1	1	0.000000	19.298571	19.054186	28.144793
109	1	1	0.000000	19.876948	36.711980	35.067069
110	1	1	0.000000	20.773429	36.534445	36.127637
111	1	1	0.000000	21.240535	37.643831	36.842540
112	1	1	0.000000	20.811160	38.930741	36.496874
113	1	1	0.000000	19.914680	39.108276	35.436306
114	1	1	0.000000	19.447574	37.998900	34.721404
115	1	1	0.000000	11.204566	32.940331	19.142108
116	1	1	0.000000	11.275963	31.618547	19.597948
117	1	1	0.000000	10.568953	30.609608	18.932975
118	1	1	0.000000	9.790553	30.922455	17.812169
119	1	1	0.000000	9.719156	32.244239	17.356329
120	1	1	0.000000	10.426159	33.253175	18.021295
121	1	1	0.000000	32.910161	30.527321	24.948644
122	1	1	0.000000	32.035732	30.413300	23.861275
123	1	1	0.000000	30.959662	31.299575	23.732425
124	1	1	0.000000	30.758027	32.299863	24.690942
125	1	1	0.000000	31.632457	32.413884	25.778311
126	1	1	0.000000	32.708521	31.527617	25.907164
127	1	1	0.000000	2.008760	31.052494	7.587517
128	1	1	0.000000	2.971066	31.972196	8.021240
129	1	1	0.000000	4.298407	31.564558	8.200150
130	1	1	0.000000	4.663435	30.237226	7.945336
131	1	1	0.000000	3.701129	29.317524	7.511612
132	1	1	0.000000	2.373795	29.725154	7.332703
133	1	1	0.000000	12.943239	13.055327	3.564567
134	1	1	0.000000	14.170860	12.611598	4.070583
135	1	1	0.000000	14.387521	11.244897	4.283177
136	1	1	0.000000	13.376565	10.321934	3.989757
137	1	1	0.000000	12.148945	10.765664	3.483741
138	1	1	0.000000	11.932280	12.132356	3.271146
139	1	1	0.000000	16.547486	15.535759	3.937225
140	1	1	0.000000	16.625311	16.769168	3.279467
141	1	1	0.000000	15.926697	17.874518	3.779619
142	1	1	0.000000	15.150265	17.746454	4.937522
143	1	1	0.000000	15.072439	16.513045	5.595279
144	1	1	0.000000	15.771047	15.407700	5.095135
145	1	1	0.000000	8.494225	14.935289	8.910735
146	1	1	0.000000	9.790997	14.532601	9.251657
147	1	1	0.000000	10.023933	13.225790	9.696623
148	1	1	0.000000	8.960102	12.321674	9.800664
149	1	1	0.000000	7.663330	12.724361	9.459742
150	1	1	0.000000	7.430391	14.031164	9.014779
151	1	1	0.000000	18.022145	25.927786	32.404916
152	1	1	0.000000	18.985449	25.191848	31.704601
153	1	1	0.000000	19.944425	24.449663	32.404270
154	1	1	0.000000	19.940094	24.443419	33.804244
155	1	1	0.000000	18.976790	25.179358	34.504559
156	1	1	0.000000	18.017818	25.921540	33.804899
157	1	1	0.000000	12.709481	23.190537	28.531014
158	1	1	0.000000	13.900937	22.455858	28.557077
159	1	1	0.000000	13.861876	21.057064	28.513942
160	1	1	0.000000	12.631363	20.392958	28.444743
161	1	1	0.000000	11.439907	21.127637	28.418680
162	1	1	0.000000	11.478964	22.526422	28.461815
163	1	1	0.000000	15.858875	8.934691	37.746252
164	1	1	0.000000	16.557583	9.036828	38.955125
165	1	1	0.000000	15.856334	9.150179	40.161530
166	1	1	0.000000	14.456386	9.161392	40.159056
167	1	1	0.000000	13.757678	9.059255	38.950183
168	1	1	0.000000	14.458918	8.945905	37.743783
169	1	1	0.000000	5.264298	19.389687	2.793231
170	1	1	0.000000	6.043682	19.077890	3.913652
171	1	1	0.000000	7.136731	19.884417	4.252425
172	1	1	0.000000	7.450391	21.002734	3.470778
173	1	1	0.000000	6.671007	21.314531	2.350357
174	1	1	0.000000	5.577963	20.508012	2.011583
175	1	1	0.000000	35.331363	12.990861	17.685531
176	1	1	0.000000	35.090967	14.054206	18.563886
177	1	1	0.000000	33.913933	14.084060	19.321324
178	1	1	0.000000	32.977305	13.050575	19.200403
179	1	1	0.000000	33.217702	11.987231	18.322047
180	1	1	0.000000	34.394726	11.957372	17.564612
181	1	1	0.000000	4.446404	24.513186	18.774483
182	1	1	0.000000	4.858198	24.705827	20.098611
183	1	1	0.000000	3.923898	24.638517	21.139074
184	1	1	0.000000	2.577813	24.378568	20.855406
185	1	1	0.000000	2.166019	24.185927	19.531278
186	1	1	0.000000	3.100310	24.253235	18.490818
187	1	1	0.000000	13.694540	29.689548	38.106760
188	1	1	0.000000	14.098409	29.403781	36.797093
189	1	1	0.000000	15.232096	30.027336	36.262354
190	1	1	0.000000	15.961905	30.936651	37.037281
191	1	1	0.000000	15.558036	31.222417	38.346948
192	1	1	0.000000	14.424357	30.598868	38.881688
193	1	1	0.000000	16.325982	24.531784	12.003722
194	1	1	0.000000	15.716555	25.779658	11.826492
195	1	1	0.000000	16.488380	26.947118	11.863005
196	1	1	0.000000	17.869623	26.866701	12.076747
197	1	1	0.000000	18.479051	25.618827	12.253977
198	1	1	0.000000	17.707235	24.451371	12.217465
199	1	1	0.000000	24.470306	33.273240	28.167818
200	1	1	0.000000	25.810095	33.501856	28.503529
201	1	1	0.000000	26.777812	32.529978	28.222484
202	1	1	0.000000	26.405738	31.329492	27.605732
203	1	1	0.000000	25.065950	31.100877	27.270021
204	1	1	0.000000	24.098235	32.072746	27.551063
205	1	1	0.000000	15.967682	11.162591	27.328299
206	1	1	0.000000	16.928440	11.452820	26.352230
207	1	1	0.000000	16.545991	11.589691	25.012450
208	1	1	0.000000	15.202790	11.436334	24.648747
209	1	1	0.000000	14.242032	11.146105	25.624816
210	1	1	0.000000	14.624474	11.009234	26.964588
211	1	1	0.000000	36.663134	6.906551	14.509261
212	1	1	0.000000	36.353177	5.541301	14.513634
213	1	1	0.000000	35.016035	5.127133	14.536612
214	1	1	0.000000	33.988861	6.078213	14.555216
215	1	1	0.000000	34.298818	7.443463	14.550843
216	1	1	0.000000	35.635950	7.857633	14.527866
217	1	1	0.000000	4.221861	9.476004	30.363613
218	1	1	0.000000	5.338030	9.648813	31.190841
219	1	1	0.000000	6.122960	8.545579	31.546889
220	1	1	0.000000	5.791720	7.269547	31.075712
221	1	1	0.000000	4.675551	7.096739	30.248484
222	1	1	0.000000	3.890623	8.199963	29.892435
223	1	1	0.000000	27.579167	18.888910	21.492836
224	1	1	0.000000	26.493912	18.597906	20.657648
225	1	1	0.000000	26.700117	17.909407	19.456207
226	1	1	0.000000	27.991570	17.511915	19.089962
227	1	1	0.000000	29.076825	17.802918	19.925150
228	1	1	0.000000	28.870626	18.491414	21.126584
229	1	1	0.000000	14.321203	33.188712	9.696568
230	1	1	0.000000	13.329822	32.702365	8.835968
231	1	1	0.000000	12.693777	31.487182	9.116660
232	1	1	0.000000	13.049113	30.758354	10.257945
233	1	1	0.000000	14.040493	31.244701	11.118545
234	1	1	0.000000	14.676538	32.459875	10.837859
235	1	1	0.000000	21.022740	25.175663	21.083604
236	1	1	0.000000	20.816587	25.374997	22.453921
237	1	1	0.000000	19.863901	24.609697	23.137086
238	1	1	0.000000	19.117374	23.645069	22.449934
239	1	1	0.000000	19.323526	23.445735	21.079618
240	1	1	0.000000	20.276206	24.211028	20.396453
241	1	1	0.000000	25.435908	32.301261	14.741192
242	1	1	0.000000	24.452092	32.398151	13.749871
243	1	1	0.000000	23.374623	33.276401	13.916442
244	1	1	0.000000	23.280974	34.057756	15.074329
245	1	1	0.000000	24.264791	33.960866	16.065650
246	1	1	0.000000	25.342255	33.082622	15.899085
247	1	1	0.000000	38.115498	24.437572	11.713037
248	1	1	0.000000	36.908523	24.904657	12.246930
249	1	1	0.000000	36.739840	26.269971	12.506693
250	1	1	0.000000	37.778129	27.168189	12.232562
251	1	1	0.000000	38.985104	26.701103	11.698669
252	1	1	0.000000	39.153790	25.335799	11.438906
253	1	1	0.000000	8.826832	3.180629	31.566663
254	1	1	0.000000	9.907110	4.070906	31.586873
255	1	1	0.000000	9.683007	5.439221	31.780524
256	1	1	0.000000	8.378634	5.917253	31.953962
257	1	1	0.000000	7.298356	5.026977	31.933752
258	1	1	0.000000	7.522452	3.658669	31.740102
259	1	1	0.000000	33.466161	36.795533	34.839388
260	1	1	0.000000	32.732127	37.972869	34.652110
261	1	1	0.000000	33.323674	39.073678	34.020999
262	1	1	0.000000	34.649248	38.997148	33.577171
263	1	1	0.000000	35.383283	37.819812	33.764450
264	1	1	0.000000	34.791743	36.719007	34.395556
265	1	1	0.000000	34.607818	34.900673	10.638865
266	1	1	0.000000	35.575208	34.260353	11.422541
267	1	1	0.000000	35.277059	33.891575	12.739781
268	1	1	0.000000	34.011528	34.163116	13.273337
269	1	1	0.000000	33.044138	34.803436	12.489661
270	1	1	0.000000	33.342280	35.172214	11.172429
271	1	1	0.000000	26.924643	22.012582	30.082647
272	1	1	0.000000	27.211713	23.331698	29.711805
273	1	1	0.000000	26.461363	23.955721	28.708021
274	1	1	0.000000	25.423949	23.260628	28.075088
275	1	1	0.000000	25.136879	21.941512	28.445930
276	1	1	0.000000	25.887222	21.317489	29.449706
277	1	1	0.000000	28.951973	38.220101	8.952556
278	1	1	0.000000	28.291578	39.454136	8.920366
279	1	1	0.000000	27.401210	39.744653	7.879763
280	1	1	0.000000	27.171241	38.801138	6.871358
281	1	1	0.000000	27.831635	37.567103	6.903549
282	1	1	0.000000	28.721999	37.276583	7.944143
283	1	1	0.000000	21.084465	5.362276	15.085695
284	1	1	0.000000	19.733693	5.659877	14.869254
285	1	1	0.000000	19.376766	6.727233	14.036569
286	1	1	0.000000	20.370610	7.496982	13.420331
287	1	1	0.000000	21.721382	7.199381	13.636773
288	1	1	0.000000	22.078312	6.132032	14.469452
289	1	1	0.000000	9.902255	17.826690	29.391672
290	1	1	0.000000	10.965531	18.078747	28.516509
291	1	1	0.000000	10.893773	19.150052	27.618084
292	1	1	0.000000	9.758744	19.969292	27.594826
293	1	1	0.000000	8.695467	19.717234	28.469989
294	1	1	0.000000	8.767221	18.645937	29.368410
295	1	1	0.000000	11.479960	15.673218	21.140287
296	1	1	0.000000	10.110271	15.793961	21.403675
297	1	1	0.000000	9.174897	15.298755	20.487238
298	1	1	0.000000	9.609214	14.682810	19.307421
299	1	1	0.000000	10.978903	14.562067	19.044033
300	1	1	0.000000	11.914275	15.057269	19.960462
301	1	1	0.000000	19.781165	10.212497	15.097209
302	1	1	0.000000	21.054496	9.634152	15.161598
303	1	1	0.000000	22.026794	9.974814	14.213655
304	1	1	0.000000	21.725759	10.893816	13.201331
305	1	1	0.000000	20.452428	11.472161	13.136942
306	1	1	0.000000	19.480132	11.131504	14.084877
307	1	1	0.000000	35.415642	23.976714	23.767056
308	1	1	0.000000	34.217988	24.698522	23.699098
309	1	1	0.000000	33.589521	25.124200	24.875464
310	1	1	0.000000	34.158709	24.828070	26.119779
311	1	1	0.000000	35.356363	24.106262	26.187737
312	1	1	0.000000	35.984830	23.680584	25.011380
313	1	1	0.000000	13.597704	27.000981	20.864821
314	1	1	0.000000	13.736983	28.102364	20.011851
315	1	1	0.000000	14.795229	28.149414	19.096475
316	1	1	0.000000	15.714187	27.095085	19.034074
317	1	1	0.000000	15.574907	25.993703	19.887044
318	1	1	0.000000	14.516670	25.946649	20.802416
319	1	1	0.000000	28.654633	37.258568	23.627773
320	1	1	0.000000	30.026669	37.308353	23.353838
321	1	1	0.000000	30.616206	38.511502	22.947774
322	1	1	0.000000	29.833709	39.664857	22.815648
323	1	1	0.000000	28.461674	39.615072	23.089583
324	1	1	0.000000	27.872135	38.411932	23.495644
325	1	1	0.000000	17.472122	7.009189	37.617035
326	1	1	0.000000	17.680136	5.626348	37.683971
327	1	1	0.000000	18.893893	5.123663	38.167821
328	1	1	0.000000	19.899627	6.003817	38.584732
329	1	1	0.000000	19.691613	7.386658	38.517796
330	1	1	0.000000	18.477865	7.889345	38.033950
331	1	1	0.000000	32.827696	21.537611	29.615087
332	1	1	0.000000	33.092630	22.718389	30.319057
333	1	1	0.000000	34.387225	23.251223	30.330221
334	1	1	0.000000	35.416875	22.603279	29.637419
335	1	1	0.000000	35.151941	21.422501	28.933449
336	1	1	0.000000	33.857356	20.889667	28.922282
337	1	1	0.000000	16.090875	21.633555	27.654913
338	1	1	0.000000	15.358051	20.815158	26.787043
339	1	1	0.000000	14.391567	21.376902	25.944213
340	1	1	0.000000	14.157910	22.757034	25.969256
341	1	1	0.000000	14.890734	23.575430	26.837125
342	1	1	0.000000	15.857213	23.013695	27.679952
343	1	1	0.000000	12.573887	32.833061	26.008593
344	1	1	0.000000	13.850004	33.334226	25.725117
345	1	1	0.000000	14.125268	33.875163	24.463520
346	1	1	0.000000	13.124418	33.914933	23.485408
347	1	1	0.000000	11.848301	33.413768	23.768883
348	1	1	0.000000	11.573034	32.872834	25.030471
349	1	1	0.000000	17.246811	32.299099	35.747914
350	1	1	0.000000	17.089684	33.629622	36.154143
351	1	1	0.000000	16.103979	34.429876	35.564236
352	1	1	0.000000	15.275409	33.899607	34.568108
353	1	1	0.000000	15.432535	32.569085	34.161880
354	1	1	0.000000	16.418232	31.768832	34.751779
355	1	1	0.000000	24.205811	19.531040	38.449626
356	1	1	0.000000	25.048049	20.441624	39.098834
357	1	1	0.000000	26.430797	20.223552	39.120352
358	1	1	0.000000	26.971299	19.094902	38.492664
359	1	1	0.000000	26.129061	18.184318	37.843455
360	1	1	0.000000	24.746321	18.402384	37.821935
361	1	1	0.000000	8.162298	32.166205	15.684827
362	1	1	0.000000	7.658333	33.449056	15.930413
363	1	1	0.000000	6.517176	33.612607	16.724782
364	1	1	0.000000	5.879992	32.493310	17.273561
365	1	1	0.000000	6.383957	31.210459	17.027975
366	1	1	0.000000	7.525106	31.046904	16.233611
367	1	1	0.000000	26.728745	22.148753	35.602885
368	1	1	0.000000	25.776258	23.164548	35.458220
369	1	1	0.000000	24.411919	22.861923	35.541934
370	1	1	0.000000	24.000074	21.543509	35.770311
371	1	1	0.000000	24.952561	20.527714	35.914976
372	1	1	0.000000	26.316893	20.830332	35.831263
373	1	1	0.000000	21.304878	11.127174	3.238333
374	1	1	0.000000	22.181188	10.358609	2.462840
375	1	1	0.000000	23.558272	10.606546	2.509518
376	1	1	0.000000	24.059037	11.623041	3.331684
377	1	1	0.000000	23.182727	12.391605	4.107177
378	1	1	0.000000	21.805651	12.143674	4.060504
379	1	1	0.000000	36.137569	31.844984	17.994071
380	1	1	0.000000	36.223844	33.241225	17.938682
381	1	1	0.000000	37.475125	33.867566	17.983429
382	1	1	0.000000	38.640121	33.097668	18.083563
383	1	1	0.000000	38.553846	31.701427	18.138952
384	1	1	0.000000	37.302575	31.075084	18.094206
385	1	1	0.000000	28.797934	9.653152	27.116544
386	1	1	0.000000	27.724743	8.754876	27.153425
387	1	1	0.000000	26.409889	9.235423	27.168993
388	1	1	0.000000	26.168231	10.614239	27.147681
389	1	1	0.000000	27.241423	11.512516	27.110800
390	1	1	0.000000	28.556271	11.031976	27.095231
391	1	1	0.000000	28.908145	2.888368	39.000744
392	1	1	0.000000	28.155454	2.008401	38.213904
393	1	1	0.000000	26.870962	2.371185	37.791439
394	1	1	0.000000	26.339167	3.613929	38.155813
395	1	1	0.000000	27.091857	4.493896	38.942652
396	1	1	0.000000	28.376342	4.131118	39.365117
397	1	1	0.000000	35.491607	26.045945	34.671366
398	1	1	0.000000	34.694477	24.895042	34.668520
399	1	1	0.000000	35.292623	23.629250	34.669927
400	1	1	0.000000	36.687890	23.514365	34.674180
401	1	1	0.000000	37.485020	24.665268	34.677025
402	1	1	0.000000	36.886882	25.931055	34.675618
403	1	1	0.000000	21.433665	35.980043	28.874958
404	1	1	0.000000	21.587464	36.088246	27.487644
405	1	1	0.000000	22.813162	35.767315	26.892095
406	1	1	0.000000	23.885051	35.338186	27.683857
407	1	1	0.000000	23.731251	35.229983	29.071171
408	1	1	0.000000	22.505563	35.550910	29.666721
409	1	1	0.000000	38.112735	11.812906	36.012030
410	1	1	0.000000	37.268645	12.509309	36.885263
411	1	1	0.000000	36.030046	11.964599	37.244674
412	1	1	0.000000	35.635544	10.723494	36.730852
413	1	1	0.000000	36.479634	10.027091	35.857619
414	1	1	0.000000	37.718226	10.571794	35.498208
415	1	1	0.000000	27.991118	37.098500	14.978386
416	1	1	0.000000	26.663193	37.424062	15.279423
417	1	1	0.000000	25.686361	36.421626	15.309967
418	1	1	0.000000	26.037457	35.093638	15.039476
419	1	1	0.000000	27.365383	34.768077	14.738439
420	1	1	0.000000	28.342212	35.770503	14.707894
421	1	1	0.000000	8.969965	8.257536	13.398030
422	1	1	0.000000	9.326884	6.923208	13.169607
423	1	1	0.000000	8.446526	5.893048	13.521389
424	1	1	0.000000	7.209257	6.197219	14.101590
425	1	1	0.000000	6.852338	7.531547	14.330012
426	1	1	0.000000	7.732687	8.561704	13.978234
427	1	1	0.000000	9.260038	22.715199	30.883811
428	1	1	0.000000	8.167590	21.839667	30.885127
429	1	1	0.000000	8.379602	20.455811	30.886686
430	1	1	0.000000	9.684056	19.947494	30.886927
431	1	1	0.000000	10.776504	20.823025	30.885611
432	1	1	0.000000	10.564498	22.206874	30.884052
433	1	1	0.000000	20.856798	9.598908	6.764118
434	1	1	0.000000	22.255165	9.562329	6.820972
435	1	1	0.000000	22.927259	10.144788	7.902195
436	1	1	0.000000	22.200986	10.763819	8.926555
437	1	1	0.000000	20.802619	10.800398	8.869702
438	1	1	0.000000	20.130525	10.217944	7.788487
439	1	1	0.000000	36.770462	9.221973	16.288699
440	1	1	0.000000	38.040670	8.764604	15.918048
441	1	1	0.000000	39.108163	9.665191	15.821023
442	1	1	0.000000	38.905443	11.023138	16.094649
443	1	1	0.000000	37.635234	11.480507	16.465301
444	1	1	0.000000	36.567745	10.579929	16.562327
445	1	1	0.000000	22.554279	21.429364	19.983529
446	1	1	0.000000	21.990597	22.324726	20.900365
447	1	1	0.000000	22.790677	23.298182	21.510501
448	1	1	0.000000	24.154430	23.376271	21.203800
449	1	1	0.000000	24.718112	22.480908	20.286964
450	1	1	0.000000	23.918041	21.507457	19.676829
451	1	1	0.000000	27.569676	29.109528	2.364137
452	1	1	0.000000	28.475468	30.002680	2.948792
453	1	1	0.000000	28.036000	30.909277	3.920883
454	1	1	0.000000	26.690748	30.922718	4.308314
455	1	1	0.000000	25.784956	30.029566	3.723659
456	1	1	0.000000	26.224416	29.122973	2.751573
457	1	1	0.000000	19.134948	15.555490	2.748096
458	1	1	0.000000	18.860916	15.608401	4.119995
459	1	1	0.000000	18.800005	16.844497	4.774492
460	1	1	0.000000	19.013125	18.027672	4.057092
461	1	1	0.000000	19.287157	17.974760	2.685193
462	1	1	0.000000	19.348069	16.738674	2.030694
463	1	1	0.000000	13.715839	30.680492	17.049195
464	1	1	0.000000	14.710771	30.971215	16.108136
465	1	1	0.000000	14.929942	32.294585	15.707304
466	1	1	0.000000	14.154182	33.327223	16.247529
467	1	1	0.000000	13.159250	33.036500	17.188587
468	1	1	0.000000	12.940077	31.713140	17.589420
469	1	1	0.000000	6.271028	19.893916	21.950448
470	1	1	0.000000	5.111846	19.274245	21.468466
471	1	1	0.000000	5.208116	18.257440	20.510943
472	1	1	0.000000	6.463561	17.860311	20.035409
473	1	1	0.000000	7.622742	18.479982	20.517391
474	1	1	0.000000	7.526478	19.496782	21.474908
475	1	1	0.000000	12.608898	19.817379	34.935398
476	1	1	0.000000	13.903549	19.656992	34.427309
477	1	1	0.000000	14.110993	18.905900	33.264193
478	1	1	0.000000	13.023790	18.315200	32.609174
479	1	1	0.000000	11.729139	18.475587	33.117263
480	1	1	0.000000	11.521691	19.226674	34.280371
481	1	1	0.000000	16.979663	19.002842	9.754748
482	1	1	0.000000	15.986097	18.271585	9.092864
483	1	1	0.000000	16.249001	16.966614	8.659340
484	1	1	0.000000	17.505464	16.392908	8.887702
485	1	1	0.000000	18.499029	17.124165	9.549586
486	1	1	0.000000	18.236132	18.429128	9.983109
487	1	1	0.000000	36.208666	7.062245	28.995593
488	1	1	0.000000	36.427062	8.290875	29.630235
489	1	1	0.000000	36.595133	8.341173	31.019203
490	1	1	0.000000	36.544806	7.162844	31.773521
491	1	1	0.000000	36.326409	5.934214	31.138879
492	1	1	0.000000	36.158340	5.883912	29.749920
493	1	1	0.000000	34.155884	24.327031	13.565416
494	1	1	0.000000	35.108432	25.315192	13.841445
495	1	1	0.000000	36.325983	24.966582	14.438144
496	1	1	0.000000	36.590982	23.629819	14.758811
497	1	1	0.000000	35.638434	22.641659	14.482782
498	1	1	0.000000	34.420889	22.990261	13.886087
499	1	1	0.000000	4.615066	7.400871	22.147028
500	1	1	0.000000	5.752858	6.645152	21.839915
501	1	1	0.000000	6.785845	6.522827	22.776924
502	1	1	0.000000	6.681034	7.156217	24.021038
503	1	1	0.000000	5.543242	7.911935	24.328150
504	1	1	0.000000	4.510260	8.034263	23.391150
505	1	1	0.000000	10.936652	10.790670	6.494166
506	1	1	0.000000	12.134599	11.209734	5.903142
507	1	1	0.000000	13.087591	11.897282	6.664127
508	1	1	0.000000	12.842632	12.165761	8.016125
509	1	1	0.000000	11.644686	11.746697	8.607149
510	1	1	0.000000	10.691697	11.059153	7.846173
511	1	1	0.000000	4.624240	4.819920	9.992927
512	1	1	0.000000	5.260276	3.579741	10.124889
513	1	1	0.000000	6.600940	3.436971	9.747732
514	1	1	0.000000	7.305560	4.534377	9.238615
515	1	1	0.000000	6.669524	5.774556	9.106653
516	1	1	0.000000	5.328868	5.917329	9.483807
517	1	1	0.000000	13.252452	19.242027	24.084210
518	1	1	0.000000	12.755779	18.133619	23.387970
519	1	1	0.000000	11.955613	18.320064	22.254399
520	1	1	0.000000	11.652125	19.614911	21.817074
521	1	1	0.000000	12.148797	20.723318	22.513313
522	1	1	0.000000	12.948958	20.536879	23.646878
523	1	1	0.000000	26.519844	5.696813	23.847235
524	1	1	0.000000	25.190342	5.752184	24.282388
525	1	1	0.000000	24.176998	6.124585	23.391061
526	1	1	0.000000	24.493158	6.441611	22.064591
527	1	1	0.000000	25.822661	6.386239	21.629438
528	1	1	0.000000	26.836002	6.013842	22.520755
529	1	1	0.000000	27.018144	8.940250	5.595667
530	1	1	0.000000	27.034932	8.912983	6.995301
531	1	1	0.000000	26.865089	10.098346	7.720614
532	1	1	0.000000	26.678459	11.310966	7.046293
533	1	1	0.000000	26.661670	11.338233	5.646659
534	1	1	0.000000	26.831512	10.152880	4.921346
535	1	1	0.000000	4.941873	38.156794	7.475923
536	1	1	0.000000	5.319853	38.505519	6.173802
537	1	1	0.000000	4.529504	38.113466	5.086764
538	1	1	0.000000	3.361182	37.372691	5.301851
539	1	1	0.000000	2.983201	37.023965	6.603972
540	1	1	0.000000	3.773543	37.416014	7.691007
541	1	1	0.000000	9.886429	29.176880	26.922422
542	1	1	0.000000	9.726029	29.250039	28.311277
543	1	1	0.000000	10.700710	29.877389	29.096414
544	1	1	0.000000	11.835782	30.431574	28.492695
545	1	1	0.000000	11.996182	30.358414	27.103840
546	1	1	0.000000	11.021509	29.731070	26.318703
547	1	1	0.000000	4.862585	15.269677	6.202945
548	1	1	0.000000	3.667545	14.598119	6.487352
549	1	1	0.000000	3.684961	13.226601	6.767790
550	1	1	0.000000	4.897412	12.526649	6.763820
551	1	1	0.000000	6.092453	13.198207	6.479412
552	1	1	0.000000	6.075042	14.569717	6.198975
553	1	1	0.000000	18.573499	12.204336	17.121066
554	1	1	0.000000	17.206609	12.225715	16.819145
555	1	1	0.000000	16.480470	11.029525	16.776014
556	1	1	0.000000	17.121221	9.811964	17.034803
557	1	1	0.000000	18.488110	9.790585	17.336724
558	1	1	0.000000	19.214249	10.986765	17.379856
559	1	1	0.000000	13.897436	38.891182	20.121246
560	1	1	0.000000	14.429126	39.124075	21.395243
561	1	1	0.000000	14.650275	38.052093	22.268145
562	1	1	0.000000	14.339735	36.747228	21.867050
563	1	1	0.000000	13.808045	36.514335	20.593053
564	1	1	0.000000	13.586896	37.586306	19.720153
565	1	1	0.000000	22.124951	23.256309	36.125068
566	1	1	0.000000	22.571505	22.594647	37.275195
567	1	1	0.000000	21.858306	21.497615	37.773069
568	1	1	0.000000	20.698560	21.062251	37.120815
569	1	1	0.000000	20.252006	21.723913	35.970687
570	1	1	0.000000	20.965198	22.820939	35.472814
571	1	1	0.000000	32.488011	20.912599	24.666852
572	1	1	0.000000	32.511321	22.276695	24.352689
573	1	1	0.000000	32.365746	23.231108	25.366551
574	1	1	0.000000	32.196862	22.821423	26.694565
575	1	1	0.000000	32.173552	21.457326	27.008728
576	1	1	0.000000	32.319126	20.502916	25.994876
577	1	1	0.000000	10.372463	37.188547	27.049428
578	1	1	0.000000	10.999443	37.620391	25.874520
579	1	1	0.000000	12.291189	37.176913	25.566739
580	1	1	0.000000	12.955949	36.301598	26.433863
581	1	1	0.000000	12.328969	35.869755	27.608771
582	1	1	0.000000	11.037231	36.313227	27.916554
583	1	1	0.000000	40.080157	33.002768	11.898980
584	1	1	0.000000	39.208641	34.097483	11.944376
585	1	1	0.000000	37.846061	33.897485	12.196146
586	1	1	0.000000	37.355005	32.602780	12.402518
587	1	1	0.000000	38.226521	31.508066	12.357122
588	1	1	0.000000	39.589094	31.708057	12.105354
589	1	1	0.000000	19.794380	18.512010	13.279665
590	1	1	0.000000	19.360133	18.186271	11.989191
591	1	1	0.000000	19.715709	16.957477	11.420297
592	1	1	0.000000	20.505529	16.054430	12.141877
593	1	1	0.000000	20.939776	16.380169	13.432351
594	1	1	0.000000	20.584205	17.608955	14.001245
595	1	1	0.000000	6.322774	30.429242	2.269358
596	1	1	0.000000	6.249223	29.101704	2.707802
597	1	1	0.000000	5.040232	28.591675	3.195883
598	1	1	0.000000	3.904802	29.409184	3.245517
599	1	1	0.000000	3.978352	30.736721	2.807073
600	1	1	0.000000	5.187333	31.246751	2.318995
601	1	1	0.000000	5.399928	18.243812	39.110794
602	1	1	0.000000	4.979865	17.284466	40.039881
603	1	1	0.000000	5.560937	16.010747	40.042193
604	1	1	0.000000	6.562064	15.696380	39.115423
605	1	1	0.000000	6.982127	16.655726	38.186336
606	1	1	0.000000	6.401062	17.929439	38.184020
607	1	1	0.000000	18.229676	30.516254	23.374274
608	1	1	0.000000	19.565958	30.257315	23.046707
609	1	1	0.000000	20.022874	28.936628	22.962895
610	1	1	0.000000	19.143509	27.874889	23.206650
611	1	1	0.000000	17.807227	28.133829	23.534217
612	1	1	0.000000	17.350309	29.454506	23.618029
613	1	1	0.000000	37.903063	36.023258	30.481384
614	1	1	0.000000	39.045660	36.635063	31.010691
615	1	1	0.000000	40.169572	35.863085	31.328316
616	1	1	0.000000	40.150881	34.479312	31.116632
617	1	1	0.000000	39.008283	33.867508	30.587325
618	1	1	0.000000	37.884377	34.639476	30.269701
619	1	1	0.000000	24.255100	31.061915	22.002780
620	1	1	0.000000	24.927650	29.983521	21.415632
621	1	1	0.000000	24.277715	28.753078	21.261987
622	1	1	0.000000	22.955238	28.601036	21.695489
623	1	1	0.000000	22.282688	29.679430	22.282638
624	1	1	0.000000	22.932615	30.909867	22.436284
625	1	1	0.000000	32.340716	28.376778	15.271205
626	1	1	0.000000	31.473534	27.278107	15.301508
627	1	1	0.000000	31.990841	25.980286	15.391313
628	1	1	0.000000	33.375322	25.781142	15.450814
629	1	1	0.000000	34.242504	26.879813	15.420511
630	1	1	0.000000	33.725205	28.177628	15.330706
631	1	1	0.000000	16.619292	25.236530	29.707444