box.lammps - created by mBuild; units = real

1500 atoms
1200 bonds
900 angles
600 dihedrals
0 impropers

2 atom types
2 bond types
2 angle types
1 dihedral types

0.000000 41.546920 xlo xhi
0.000000 41.519190 ylo yhi
0.000000 41.598270 zlo zhi
0.000000 0.000000 0.000000 xy xz yz

Masses

1	14.027000	# CH2_sp3
2	15.035000	# CH3_sp3

Pair Coeffs # lj
#	epsilon (kcal/mol)		sigma (Angstrom)
1	0.09141		3.95000		# CH2_sp3
2	0.19475		3.75000		# CH3_sp3

Bond Coeffs # harmonic
#	k(kcal/mol/angstrom^2)		req(angstrom)
1	600.402		1.54		# CH2_sp3	CH3_sp3
2	600.402		1.54		# CH2_sp3	CH2_sp3

Angle Coeffs # harmonic
#	k(kcal/mol/rad^2)		theteq(deg)
1	62.1		114.00000	# CH2_sp3	CH2_sp3	CH3_sp3
2	62.1		114.00000	# CH2_sp3	CH2_sp3	CH2_sp3

Dihedral Coeffs # opls
#	f1(kcal/mol)	f2(kcal/mol)	f3(kcal/mol)	f4(kcal/mol)
1	1.41100	-0.27100		3.14500		-0.00000	# CH2_sp3	CH2_sp3	CH2_sp3	CH3_sp3

Atoms # full

1	0	1	0.000000	32.306742	22.427286	4.538770
2	0	1	0.000000	32.165378	21.075850	3.814037
3	0	1	0.000000	31.740385	19.914428	4.731685
4	0	2	0.000000	32.731735	23.588708	3.621122
5	0	2	0.000000	31.599021	18.562992	4.006953
6	0	1	0.000000	13.836840	31.649736	30.407329
7	0	1	0.000000	13.228538	30.409865	31.088715
8	0	1	0.000000	12.065208	29.772626	30.306288
9	0	2	0.000000	15.000170	32.286975	31.189756
10	0	2	0.000000	11.456905	28.532754	30.987673
11	0	1	0.000000	17.912150	12.091930	34.766476
12	0	1	0.000000	18.307179	12.638168	33.381855
13	0	1	0.000000	19.654410	12.105578	32.859443
14	0	2	0.000000	16.564918	12.624521	35.288887
15	0	2	0.000000	20.049440	12.651816	31.474822
16	0	1	0.000000	29.840862	16.455643	27.243428
17	0	1	0.000000	29.071587	16.386820	25.911107
18	0	1	0.000000	27.586610	16.008598	26.064050
19	0	2	0.000000	31.325838	16.833865	27.090485
20	0	2	0.000000	26.817334	15.939775	24.731729
21	0	1	0.000000	20.750178	2.515501	26.154696
22	0	1	0.000000	21.451714	2.963269	24.858953
23	0	1	0.000000	20.550762	2.917347	23.610844
24	0	2	0.000000	21.651131	2.561422	27.402805
25	0	2	0.000000	21.252297	3.365116	22.315100
26	0	1	0.000000	23.163594	7.206344	12.028375
27	0	1	0.000000	23.065695	7.558616	10.532407
28	0	1	0.000000	24.359020	8.150942	9.942440
29	0	2	0.000000	21.870270	6.614018	12.618342
30	0	2	0.000000	24.261121	8.503214	8.446472
31	0	1	0.000000	22.885592	15.549228	33.130883
32	0	1	0.000000	21.974036	14.343645	33.426238
33	0	1	0.000000	22.707160	12.989345	33.426842
34	0	2	0.000000	22.152467	16.903528	33.130279
35	0	2	0.000000	21.795605	11.783761	33.722197
36	0	1	0.000000	25.299969	12.604576	9.403015
37	0	1	0.000000	24.747875	12.330796	10.814339
38	0	1	0.000000	23.370714	11.641663	10.825409
39	0	2	0.000000	26.677130	13.293709	9.391945
40	0	2	0.000000	22.818619	11.367883	12.236733
41	0	1	0.000000	6.200664	22.993634	19.304741
42	0	1	0.000000	6.486440	22.380305	20.688128
43	0	1	0.000000	7.243514	21.040302	20.634925
44	0	2	0.000000	5.443590	24.333638	19.357944
45	0	2	0.000000	7.529290	20.426972	22.018312
46	0	1	0.000000	14.095839	14.102699	6.711397
47	0	1	0.000000	14.794921	14.163484	8.082233
48	0	1	0.000000	14.849805	12.811653	8.817855
49	0	2	0.000000	14.040954	15.454530	5.975775
50	0	2	0.000000	15.548887	12.872437	10.188691
51	0	1	0.000000	33.888031	33.564321	31.479116
52	0	1	0.000000	35.179597	33.650136	32.313439
53	0	1	0.000000	35.001536	34.350854	33.673177
54	0	2	0.000000	34.066091	32.863603	30.119378
55	0	2	0.000000	36.293102	34.436670	34.507500
56	0	1	0.000000	6.769698	21.272999	13.952876
57	0	1	0.000000	6.542219	20.530363	12.623085
58	0	1	0.000000	5.497948	19.401600	12.706703
59	0	2	0.000000	7.813969	22.401762	13.869259
60	0	2	0.000000	5.270469	18.658963	11.376912
61	0	1	0.000000	14.421596	36.863810	31.967681
62	0	1	0.000000	13.753357	37.800045	30.943709
63	0	1	0.000000	14.259286	37.613740	29.501167
64	0	2	0.000000	13.915667	37.050115	33.410223
65	0	2	0.000000	13.591047	38.549974	28.477194
66	0	1	0.000000	35.295047	25.421225	21.607261
67	0	1	0.000000	35.403622	24.653379	22.937759
68	0	1	0.000000	36.090142	23.280401	22.814378
69	0	2	0.000000	34.608526	26.794202	21.730642
70	0	2	0.000000	36.198718	22.512555	24.144875
71	0	1	0.000000	15.836548	15.802353	24.399816
72	0	1	0.000000	17.080472	14.974340	24.027464
73	0	1	0.000000	16.793969	13.477026	23.809367
74	0	2	0.000000	16.123051	17.299667	24.617913
75	0	2	0.000000	18.037893	12.649012	23.437015
76	0	1	0.000000	5.198272	15.825137	18.831642
77	0	1	0.000000	5.897199	15.906399	20.201495
78	0	1	0.000000	7.307548	16.522690	20.149521
79	0	2	0.000000	3.787923	15.208846	18.883616
80	0	2	0.000000	8.006476	16.603953	21.519374
81	0	1	0.000000	31.891492	15.413945	37.227188
82	0	1	0.000000	33.383708	15.057354	37.360348
83	0	1	0.000000	33.688956	13.559598	37.172861
84	0	2	0.000000	31.586244	16.911700	37.414675
85	0	2	0.000000	35.181173	13.203006	37.306021
86	0	1	0.000000	19.639418	21.148602	19.063973
87	0	1	0.000000	19.254883	21.454031	20.523578
88	0	1	0.000000	19.954991	20.552681	21.557510
89	0	2	0.000000	18.939310	22.049952	18.030041
90	0	2	0.000000	19.570456	20.858110	23.017115
91	0	1	0.000000	34.226196	37.466748	21.490411
92	0	1	0.000000	34.862897	36.084266	21.255991
93	0	1	0.000000	34.310194	35.340549	20.025948
94	0	2	0.000000	34.778899	38.210465	22.720454
95	0	2	0.000000	34.946895	33.958066	19.791526
96	0	1	0.000000	19.397079	38.401339	20.663455
97	0	1	0.000000	19.364354	37.695503	22.031784
98	0	1	0.000000	20.094089	38.462778	23.149986
99	0	2	0.000000	18.667343	37.634064	19.545254
100	0	2	0.000000	20.061364	37.756943	24.518316
101	0	1	0.000000	5.442426	21.939683	33.864898
102	0	1	0.000000	5.297789	23.341670	33.244323
103	0	1	0.000000	6.102519	24.434735	33.971798
104	0	2	0.000000	4.637697	20.846618	33.137423
105	0	2	0.000000	5.957882	25.836722	33.351223
106	0	1	0.000000	18.201595	33.169558	6.196483
107	0	1	0.000000	19.185132	32.319217	5.371151
108	0	1	0.000000	18.831858	32.228394	3.874973
109	0	2	0.000000	18.554870	33.260381	7.692661
110	0	2	0.000000	19.815394	31.378052	3.049640
111	0	1	0.000000	28.358357	11.501868	34.672898
112	0	1	0.000000	28.215023	11.403194	33.142761
113	0	1	0.000000	29.040600	12.446898	32.367710
114	0	2	0.000000	27.532780	10.458164	35.447950
115	0	2	0.000000	28.897267	12.348225	30.837572
116	0	1	0.000000	11.268736	33.506512	11.607241
117	0	1	0.000000	12.150095	33.978990	10.436100
118	0	1	0.000000	11.697850	33.454631	9.060556
119	0	2	0.000000	11.720982	34.030872	12.982785
120	0	2	0.000000	12.579208	33.927109	7.889415
121	0	1	0.000000	28.422739	24.631214	34.322702
122	0	1	0.000000	26.979979	24.832357	33.823119
123	0	1	0.000000	26.323165	26.135921	34.313952
124	0	2	0.000000	29.079553	23.327650	33.831869
125	0	2	0.000000	24.880404	26.337065	33.814370
126	0	1	0.000000	6.267334	15.969539	8.114167
127	0	1	0.000000	7.616730	15.301625	7.790713
128	0	1	0.000000	8.803758	15.867410	8.592244
129	0	2	0.000000	5.080306	15.403754	7.312637
130	0	2	0.000000	10.153154	15.199498	8.268790
131	0	1	0.000000	8.388691	21.872018	34.731731
132	0	1	0.000000	7.475363	20.763765	34.175669
133	0	1	0.000000	8.196605	19.427378	33.919779
134	0	2	0.000000	7.667449	23.208405	34.987622
135	0	2	0.000000	7.283277	18.319124	33.363716
136	0	1	0.000000	8.270140	21.682630	30.674088
137	0	1	0.000000	7.142451	20.866933	30.014879
138	0	1	0.000000	6.846637	21.270382	28.558403
139	0	2	0.000000	8.565954	21.279181	32.130564
140	0	2	0.000000	5.718949	20.454686	27.899193
141	0	1	0.000000	27.076646	7.427684	23.727928
142	0	1	0.000000	28.085736	7.244312	24.876715
143	0	1	0.000000	29.086096	6.094805	24.654199
144	0	2	0.000000	26.076286	8.577190	23.950444
145	0	2	0.000000	30.095187	5.911433	25.802986
146	0	1	0.000000	21.008752	4.313101	8.819091
147	0	1	0.000000	19.696449	3.573437	9.139022
148	0	1	0.000000	18.440920	4.461438	9.057143
149	0	2	0.000000	22.264280	3.425101	8.900971
150	0	2	0.000000	17.128616	3.721774	9.377073
151	0	1	0.000000	9.927849	3.536814	12.019786
152	0	1	0.000000	8.521013	3.978791	12.463711
153	0	1	0.000000	8.506240	4.816313	13.755972
154	0	2	0.000000	9.942622	2.699292	10.727525
155	0	2	0.000000	7.099405	5.258291	14.199898
156	0	1	0.000000	15.728977	19.444657	23.495532
157	0	1	0.000000	16.210682	19.054116	22.085909
158	0	1	0.000000	17.388962	18.062547	22.078968
159	0	2	0.000000	14.550698	20.436226	23.502473
160	0	2	0.000000	17.870668	17.672005	20.669345
161	0	1	0.000000	14.885879	7.145401	31.275186
162	0	1	0.000000	13.702807	7.928612	30.676421
163	0	1	0.000000	13.597795	7.829462	29.143208
164	0	2	0.000000	14.990892	7.244552	32.808399
165	0	2	0.000000	12.414722	8.612673	28.544442
166	0	1	0.000000	6.450001	24.149195	22.766158
167	0	1	0.000000	7.417841	23.428275	23.722798
168	0	1	0.000000	8.846562	24.003027	23.718817
169	0	2	0.000000	5.021280	23.574443	22.770139
170	0	2	0.000000	9.814404	23.282107	24.675456
171	0	1	0.000000	12.627581	26.752048	32.111433
172	0	1	0.000000	13.327354	26.068979	30.921755
173	0	1	0.000000	12.379360	25.257706	30.019124
174	0	2	0.000000	13.575575	27.563322	33.014064
175	0	2	0.000000	13.079133	24.574637	28.829445
176	0	1	0.000000	36.098393	34.546702	10.159751
177	0	1	0.000000	36.870680	34.893672	11.446135
178	0	1	0.000000	37.430954	36.327891	11.472793
179	0	2	0.000000	35.538120	33.112484	10.133092
180	0	2	0.000000	38.203241	36.674862	12.759178
181	0	1	0.000000	2.931803	23.659227	26.437563
182	0	1	0.000000	2.842283	22.923438	25.087674
183	0	1	0.000000	3.744970	21.679467	24.991278
184	0	2	0.000000	2.029115	24.903198	26.533959
185	0	2	0.000000	3.655451	20.943677	23.641388
186	0	1	0.000000	20.943363	19.152140	30.115671
187	0	1	0.000000	19.801442	18.148345	30.360644
188	0	1	0.000000	19.887950	17.419345	31.714408
189	0	2	0.000000	20.856855	19.881139	28.761907
190	0	2	0.000000	18.746030	16.415550	31.959381
191	0	1	0.000000	7.329690	29.460156	34.512052
192	0	1	0.000000	7.162427	30.542304	33.429195
193	0	1	0.000000	5.853361	31.345396	33.543160
194	0	2	0.000000	8.638756	28.657063	34.398087
195	0	2	0.000000	5.686097	32.427545	32.460304
196	0	1	0.000000	28.498049	34.307140	11.173612
197	0	1	0.000000	28.356023	34.373718	9.641621
198	0	1	0.000000	29.376553	33.507896	8.879735
199	0	2	0.000000	27.477520	35.172962	11.935498
200	0	2	0.000000	29.234528	33.574473	7.347744
201	0	1	0.000000	20.906208	8.053238	17.793653
202	0	1	0.000000	21.407860	9.329304	17.092511
203	0	1	0.000000	20.300879	10.129796	16.381594
204	0	2	0.000000	22.013190	7.252745	18.504570
205	0	2	0.000000	20.802530	11.405863	15.680451
206	0	1	0.000000	34.496054	19.311475	35.863729
207	0	1	0.000000	35.507991	18.374355	36.548848
208	0	1	0.000000	35.236458	16.877375	36.310263
209	0	2	0.000000	34.767587	20.808454	36.102314
210	0	2	0.000000	36.248394	15.940254	36.995381
211	0	1	0.000000	19.685647	7.774468	9.251960
212	0	1	0.000000	18.827442	7.307286	8.061655
213	0	1	0.000000	17.538337	8.125216	7.859673
214	0	2	0.000000	20.974753	6.956538	9.453943
215	0	2	0.000000	16.680131	7.658036	6.669367
216	0	1	0.000000	6.071560	21.363322	5.555706
217	0	1	0.000000	6.779307	20.911408	6.846623
218	0	1	0.000000	7.112224	19.408318	6.885144
219	0	2	0.000000	5.738643	22.866413	5.517186
220	0	2	0.000000	7.819971	18.956402	8.176061
221	0	1	0.000000	31.705371	36.514645	7.789881
222	0	1	0.000000	31.769272	36.975412	9.257944
223	0	1	0.000000	32.810762	38.078302	9.523524
224	0	2	0.000000	30.663881	35.411756	7.524301
225	0	2	0.000000	32.874664	38.539070	10.991588
226	0	1	0.000000	21.547747	31.626502	7.422077
227	0	1	0.000000	20.717988	30.671552	8.300239
228	0	1	0.000000	21.399218	29.316868	8.569230
229	0	2	0.000000	20.866517	32.981187	7.153086
230	0	2	0.000000	20.569459	28.361917	9.447393
231	0	1	0.000000	8.248332	5.496615	5.279549
232	0	1	0.000000	7.445317	5.351392	6.585564
233	0	1	0.000000	6.469360	4.160144	6.591622
234	0	2	0.000000	9.224289	6.687863	5.273491
235	0	2	0.000000	5.666344	4.014920	7.897637
236	0	1	0.000000	20.926587	33.689775	14.969513
237	0	1	0.000000	19.892019	34.828556	15.036189
238	0	1	0.000000	20.029932	35.867001	13.907379
239	0	2	0.000000	20.788674	32.651331	16.098324
240	0	2	0.000000	18.995364	37.005783	13.974054
241	0	1	0.000000	23.755758	24.620970	19.239311
242	0	1	0.000000	24.842207	25.693313	19.442550
243	0	1	0.000000	26.253975	25.241700	19.024751
244	0	2	0.000000	22.343990	25.072583	19.657111
245	0	2	0.000000	27.340425	26.314044	19.227989
246	0	1	0.000000	22.430710	18.672399	4.865029
247	0	1	0.000000	22.157039	18.881139	6.366073
248	0	1	0.000000	23.182851	19.789196	7.069452
249	0	2	0.000000	21.404898	17.764342	4.161650
250	0	2	0.000000	22.909181	19.997937	8.570496
251	0	1	0.000000	31.752580	18.560977	30.106979
252	0	1	0.000000	32.818256	18.504879	31.217289
253	0	1	0.000000	32.278903	18.838649	32.620604
254	0	2	0.000000	32.291933	18.227207	28.703663
255	0	2	0.000000	33.344578	18.782551	33.730915
256	0	1	0.000000	22.773474	35.410976	30.562671
257	0	1	0.000000	22.977839	34.626748	31.872183
258	0	1	0.000000	22.481956	33.169941	31.813756
259	0	2	0.000000	23.269358	36.867782	30.621099
260	0	2	0.000000	22.686321	32.385712	33.123267
261	0	1	0.000000	18.423480	35.236553	33.122736
262	0	1	0.000000	17.957711	35.589283	34.547601
263	0	1	0.000000	16.746879	36.539746	34.593494
264	0	2	0.000000	19.634312	34.286090	33.076844
265	0	2	0.000000	16.281109	36.892477	36.018358
266	0	1	0.000000	30.196479	12.908889	5.694473
267	0	1	0.000000	29.804087	14.397789	5.722870
268	0	1	0.000000	28.842917	14.813881	4.593880
269	0	2	0.000000	31.157649	12.492797	6.823464
270	0	2	0.000000	28.450524	16.302781	4.622276
271	0	1	0.000000	28.651697	3.597990	10.016445
272	0	1	0.000000	29.598819	4.128842	11.108579
273	0	1	0.000000	28.882472	4.571006	12.398128
274	0	2	0.000000	29.368044	3.155825	8.726896
275	0	2	0.000000	29.829593	5.101859	13.490262
276	0	1	0.000000	18.292756	27.091788	4.856045
277	0	1	0.000000	19.109497	28.369267	5.125452
278	0	1	0.000000	20.634138	28.152863	5.109982
279	0	2	0.000000	16.768116	27.308193	4.871514
280	0	2	0.000000	21.450880	29.430342	5.379389
281	0	1	0.000000	33.986666	29.137065	23.822896
282	0	1	0.000000	33.787741	28.014021	24.857690
283	0	1	0.000000	32.322196	27.573477	25.030027
284	0	2	0.000000	35.452211	29.577609	23.650560
285	0	2	0.000000	32.123271	26.450432	26.064821
286	0	1	0.000000	25.095429	14.349701	12.208258
287	0	1	0.000000	24.241009	15.600624	12.485308
288	0	1	0.000000	23.008341	15.732157	11.571619
289	0	2	0.000000	26.328097	14.218168	13.121947
290	0	2	0.000000	22.153920	16.983080	11.848669
291	0	1	0.000000	16.555395	30.649479	3.235396
292	0	1	0.000000	15.409284	31.294636	4.036521
293	0	1	0.000000	14.516398	32.235055	3.205878
294	0	2	0.000000	17.448280	29.709060	4.066039
295	0	2	0.000000	13.370286	32.880213	4.007002
296	0	1	0.000000	26.858831	6.639758	12.686888
297	0	1	0.000000	27.780420	7.322091	11.658931
298	0	1	0.000000	28.453954	8.606470	12.176929
299	0	2	0.000000	26.185297	5.355379	12.168890
300	0	2	0.000000	29.375544	9.288803	11.148973
301	0	1	0.000000	16.105921	19.744215	33.162724
302	0	1	0.000000	14.959201	18.732843	32.978987
303	0	1	0.000000	15.300841	17.562675	32.037930
304	0	2	0.000000	15.764281	20.914383	34.103781
305	0	2	0.000000	14.154121	16.551302	31.854192
306	0	1	0.000000	20.087726	29.372547	28.330812
307	0	1	0.000000	20.000118	29.753921	29.820267
308	0	1	0.000000	19.902478	31.269727	30.074034
309	0	2	0.000000	20.185365	27.856741	28.077045
310	0	2	0.000000	19.814870	31.651102	31.563490
311	0	1	0.000000	9.071359	21.763455	18.629290
312	0	1	0.000000	8.951588	22.365572	20.041632
313	0	1	0.000000	9.977218	23.475330	20.338482
314	0	2	0.000000	8.045728	20.653697	18.332440
315	0	2	0.000000	9.857447	24.077447	21.750824
316	0	1	0.000000	6.487861	17.899696	27.649613
317	0	1	0.000000	5.073285	18.379752	27.275287
318	0	1	0.000000	4.993843	19.092296	25.912360
319	0	2	0.000000	6.567302	17.187151	29.012539
320	0	2	0.000000	3.579267	19.572353	25.538033
321	0	1	0.000000	38.097603	26.958750	29.231049
322	0	1	0.000000	36.941970	27.155591	28.232367
323	0	1	0.000000	36.491009	28.619855	28.076918
324	0	2	0.000000	38.548565	25.494486	29.386498
325	0	2	0.000000	35.335376	28.816696	27.078235
326	0	1	0.000000	14.324484	5.658663	36.469447
327	0	1	0.000000	14.090859	4.573950	37.537349
328	0	1	0.000000	14.536658	3.164310	37.106328
329	0	2	0.000000	13.878685	7.068303	36.900468
330	0	2	0.000000	14.303033	2.079597	38.174231
331	0	1	0.000000	18.207695	13.882795	17.242489
332	0	1	0.000000	17.696579	12.979552	18.380255
333	0	1	0.000000	17.243630	13.748690	19.635191
334	0	2	0.000000	18.660644	13.113657	15.987553
335	0	2	0.000000	16.732513	12.845449	20.772959
336	0	1	0.000000	2.375856	13.450921	4.844361
337	0	1	0.000000	2.127317	14.552288	5.891652
338	0	1	0.000000	2.501524	15.967463	5.413270
339	0	2	0.000000	2.001649	12.035747	5.322744
340	0	2	0.000000	2.252985	17.068831	6.460560
341	0	1	0.000000	7.060591	4.678113	26.329346
342	0	1	0.000000	7.692335	5.603488	25.272852
343	0	1	0.000000	7.250926	7.074646	25.384448
344	0	2	0.000000	7.502000	3.206955	26.217751
345	0	2	0.000000	7.882670	8.000022	24.327954
346	0	1	0.000000	32.515266	6.128624	25.510653
347	0	1	0.000000	33.761592	6.610864	24.745332
348	0	1	0.000000	34.296218	7.976265	25.215923
349	0	2	0.000000	31.980640	4.763224	25.040063
350	0	2	0.000000	35.542544	8.458506	24.450602
351	0	1	0.000000	29.585577	23.294367	37.359636
352	0	1	0.000000	28.694976	24.513049	37.054276
353	0	1	0.000000	28.940067	25.716489	37.983395
354	0	2	0.000000	29.340486	22.090927	36.430518
355	0	2	0.000000	28.049466	26.935171	37.678035
356	0	1	0.000000	23.301625	19.421964	28.934617
357	0	1	0.000000	23.657088	18.231853	29.845046
358	0	1	0.000000	23.854662	18.611937	31.324269
359	0	2	0.000000	23.104052	19.041880	27.455393
360	0	2	0.000000	24.210125	17.421826	32.234699
361	0	1	0.000000	3.536113	11.413754	21.698258
362	0	1	0.000000	2.838954	12.785825	21.643579
363	0	1	0.000000	2.731794	13.488848	23.009549
364	0	2	0.000000	3.643273	10.710730	20.332288
365	0	2	0.000000	2.034635	14.860920	22.954871
366	0	1	0.000000	33.669966	16.471625	10.132873
367	0	1	0.000000	32.380320	16.146537	10.909230
368	0	1	0.000000	32.568519	15.105657	12.028494
369	0	2	0.000000	33.481766	17.512505	9.013609
370	0	2	0.000000	31.278874	14.780568	12.804852
371	0	1	0.000000	35.912397	14.441802	8.317501
372	0	1	0.000000	37.258218	15.108584	8.657747
373	0	1	0.000000	37.201325	16.048128	9.876607
374	0	2	0.000000	35.969289	13.502257	7.098641
375	0	2	0.000000	38.547146	16.714910	10.216853
376	0	1	0.000000	32.466064	22.139320	37.937544
377	0	1	0.000000	32.182627	22.531803	36.475621
378	0	1	0.000000	31.576825	23.938014	36.310773
379	0	2	0.000000	33.071866	20.733109	38.102392
380	0	2	0.000000	31.293387	24.330498	34.848850
381	0	1	0.000000	27.968559	16.891554	20.702433
382	0	1	0.000000	28.875920	15.952566	21.518888
383	0	1	0.000000	28.121090	15.090558	22.547854
384	0	2	0.000000	28.723390	17.753562	19.673466
385	0	2	0.000000	29.028451	14.151570	23.364310
386	0	1	0.000000	22.654332	27.365813	25.251205
387	0	1	0.000000	21.188740	27.003938	25.555648
388	0	1	0.000000	20.562002	26.025966	24.544524
389	0	2	0.000000	23.281070	28.343784	26.262329
390	0	2	0.000000	19.096410	25.664090	24.848967
391	0	1	0.000000	20.959185	30.269640	14.303226
392	0	1	0.000000	19.574494	30.542410	13.686927
393	0	1	0.000000	19.462295	31.904159	12.976540
394	0	2	0.000000	21.071384	28.907890	15.013613
395	0	2	0.000000	18.077603	32.176930	12.360240
396	0	1	0.000000	15.025034	13.662393	16.918226
397	0	1	0.000000	13.597784	13.135117	16.680452
398	0	1	0.000000	13.264475	12.875730	15.199498
399	0	2	0.000000	15.358343	13.921780	18.399179
400	0	2	0.000000	11.837224	12.348454	14.961723
401	0	1	0.000000	3.242688	32.752529	11.313334
402	0	1	0.000000	3.395709	33.040266	12.818455
403	0	1	0.000000	2.058050	33.182864	13.568079
404	0	2	0.000000	4.580346	32.609930	10.563710
405	0	2	0.000000	2.211070	33.470601	15.073201
406	0	1	0.000000	17.782872	11.207705	8.891736
407	0	1	0.000000	18.603512	11.341829	10.187946
408	0	1	0.000000	19.986638	11.989261	9.989469
409	0	2	0.000000	16.399745	10.560273	9.090213
410	0	2	0.000000	20.807279	12.123384	11.285679
411	0	1	0.000000	19.369199	23.084682	34.771849
412	0	1	0.000000	18.594114	22.601310	36.011686
413	0	1	0.000000	18.029997	21.174348	35.880720
414	0	2	0.000000	19.933316	24.511644	34.902815
415	0	2	0.000000	17.254912	20.690975	37.120556
416	0	1	0.000000	28.366064	19.474838	32.230525
417	0	1	0.000000	27.469148	20.661370	31.831421
418	0	1	0.000000	27.890646	22.003628	32.457747
419	0	2	0.000000	27.944567	18.132580	31.604199
420	0	2	0.000000	26.993731	23.190161	32.058644
421	0	1	0.000000	30.319037	20.201958	34.883831
422	0	1	0.000000	29.995196	20.734407	33.475561
423	0	1	0.000000	30.751609	22.023349	33.103987
424	0	2	0.000000	29.562623	18.913016	35.255405
425	0	2	0.000000	30.427769	22.555800	31.695717
426	0	1	0.000000	18.887870	28.929111	32.604577
427	0	1	0.000000	18.795150	27.912993	33.758054
428	0	1	0.000000	19.025066	28.525350	35.152240
429	0	2	0.000000	18.657954	28.316753	31.210391
430	0	2	0.000000	18.932347	27.509233	36.305717
431	0	1	0.000000	7.361158	19.657615	26.650443
432	0	1	0.000000	8.070366	18.654583	25.721707
433	0	1	0.000000	7.557911	17.208355	25.853672
434	0	2	0.000000	7.873612	21.103843	26.518479
435	0	2	0.000000	8.267118	16.205322	24.924936
436	0	1	0.000000	36.566184	26.196019	37.625582
437	0	1	0.000000	35.468843	25.362619	38.313249
438	0	1	0.000000	35.466210	23.876243	37.910410
439	0	2	0.000000	36.568818	27.682395	38.028422
440	0	2	0.000000	34.368868	23.042842	38.598077
441	0	1	0.000000	30.943315	28.692425	13.594011
442	0	1	0.000000	30.207763	28.719952	14.946714
443	0	1	0.000000	28.679419	28.865367	14.825797
444	0	2	0.000000	32.471659	28.547010	13.714928
445	0	2	0.000000	27.943866	28.892894	16.178500
446	0	1	0.000000	33.824812	17.984907	24.636535
447	0	1	0.000000	33.904900	18.864549	23.375023
448	0	1	0.000000	33.063295	18.344953	22.194632
449	0	2	0.000000	34.666417	18.504504	25.816926
450	0	2	0.000000	33.143382	19.224595	20.933119
451	0	1	0.000000	30.413696	18.988798	10.009208
452	0	1	0.000000	29.627411	18.869149	11.327935
453	0	1	0.000000	28.198976	18.319388	11.157832
454	0	2	0.000000	31.842131	19.538560	10.179311
455	0	2	0.000000	27.412691	18.199738	12.476558
456	0	1	0.000000	22.203649	12.819805	9.377394
457	0	1	0.000000	22.576802	12.192341	8.021427
458	0	1	0.000000	23.182210	10.780498	8.129966
459	0	2	0.000000	21.598241	14.231648	9.268855
460	0	2	0.000000	23.555363	10.153033	6.773999
461	0	1	0.000000	11.208563	32.799706	29.950703
462	0	1	0.000000	10.882726	32.629974	31.446237
463	0	1	0.000000	12.121467	32.424459	32.337799
464	0	2	0.000000	9.969822	33.005222	29.059141
465	0	2	0.000000	11.795630	32.254727	33.833333
466	0	1	0.000000	25.201223	21.294100	22.932049
467	0	1	0.000000	26.298540	20.561269	22.138037
468	0	1	0.000000	26.897501	21.389733	20.986303
469	0	2	0.000000	24.602262	20.465636	24.083783
470	0	2	0.000000	27.994818	20.656903	20.192291
471	0	1	0.000000	14.613189	10.269731	6.881920
472	0	1	0.000000	13.376757	9.364162	6.730985
473	0	1	0.000000	13.629672	7.891512	7.103724
474	0	2	0.000000	14.360274	11.742382	6.509181
475	0	2	0.000000	12.393241	6.985941	6.952789
476	0	1	0.000000	13.888606	26.430099	7.569265
477	0	1	0.000000	15.000655	26.369901	8.632902
478	0	1	0.000000	14.868819	27.434428	9.737891
479	0	2	0.000000	14.020443	25.365572	6.464276
480	0	2	0.000000	15.980867	27.374230	10.801529
481	0	1	0.000000	23.911480	33.855632	22.830015
482	0	1	0.000000	22.435037	34.293440	22.836482
483	0	1	0.000000	21.438629	33.139716	22.618101
484	0	2	0.000000	24.907888	35.009356	23.048396
485	0	2	0.000000	19.962187	33.577524	22.624568
486	0	1	0.000000	31.681707	5.273785	17.817618
487	0	1	0.000000	32.924783	4.537574	17.284368
488	0	1	0.000000	33.541956	3.543900	18.286021
489	0	2	0.000000	31.064534	6.267460	16.815966
490	0	2	0.000000	34.785033	2.807689	17.752772
491	0	1	0.000000	3.283351	25.347423	28.614379
492	0	1	0.000000	4.792137	25.225637	28.897809
493	0	1	0.000000	5.657943	25.085448	27.631978
494	0	2	0.000000	2.417544	25.487612	29.880210
495	0	2	0.000000	7.166730	24.963662	27.915407
496	0	1	0.000000	8.126517	10.056142	11.164788
497	0	1	0.000000	7.518031	10.232522	9.761138
498	0	1	0.000000	6.330856	11.212200	9.711666
499	0	2	0.000000	9.313692	9.076465	11.214261
500	0	2	0.000000	5.722369	11.388580	8.308015
501	0	1	0.000000	28.012117	28.829626	31.733924
502	0	1	0.000000	27.604783	29.618395	30.475544
503	0	1	0.000000	26.082739	29.770167	30.296804
504	0	2	0.000000	29.534161	28.677854	31.912664
505	0	2	0.000000	25.675404	30.558937	29.038424
506	0	1	0.000000	17.066272	34.236016	15.821045
507	0	1	0.000000	16.206347	34.453876	14.562209
508	0	1	0.000000	14.948624	35.309262	14.803136
509	0	2	0.000000	18.323996	33.380629	15.580118
510	0	2	0.000000	14.088698	35.527123	13.544301
511	0	1	0.000000	11.396932	7.789712	18.547102
512	0	1	0.000000	12.347324	7.908198	19.753052
513	0	1	0.000000	12.842383	6.554693	20.295768
514	0	2	0.000000	10.901873	9.143217	18.004387
515	0	2	0.000000	13.792775	6.673178	21.501718
516	0	1	0.000000	31.798766	31.359455	21.964847
517	0	1	0.000000	31.795718	31.926543	20.533064
518	0	1	0.000000	31.649844	33.458163	20.466289
519	0	2	0.000000	31.944640	29.827834	22.031623
520	0	2	0.000000	31.646796	34.025252	19.034506
521	0	1	0.000000	11.101064	27.617825	13.843284
522	0	1	0.000000	11.734948	28.801169	14.597928
523	0	1	0.000000	10.723764	29.657674	15.382469
524	0	2	0.000000	12.112248	26.761320	13.058743
525	0	2	0.000000	11.357647	30.841019	16.137114
526	0	1	0.000000	31.891292	4.431425	6.583185
527	0	1	0.000000	32.474702	4.162224	7.982743
528	0	1	0.000000	33.500966	3.014738	8.023456
529	0	2	0.000000	30.865028	5.578911	6.542473
530	0	2	0.000000	34.084377	2.745536	9.423014
531	0	1	0.000000	36.552353	30.226846	31.550977
532	0	1	0.000000	35.195626	30.168417	32.277252
533	0	1	0.000000	35.230367	30.719928	33.714690
534	0	2	0.000000	36.517612	29.675335	30.113539
535	0	2	0.000000	33.873640	30.661499	34.440966
536	0	1	0.000000	35.514560	26.087754	34.494812
537	0	1	0.000000	34.485400	25.584962	33.465429
538	0	1	0.000000	33.020626	25.827573	33.874302
539	0	2	0.000000	36.979334	25.845143	34.085938
540	0	2	0.000000	31.991465	25.324782	32.844920
541	0	1	0.000000	7.424620	8.496911	16.638610
542	0	1	0.000000	7.024124	7.949240	18.021093
543	0	1	0.000000	5.516364	7.675342	18.173542
544	0	2	0.000000	8.932380	8.770809	16.486161
545	0	2	0.000000	5.115867	7.127672	19.556025
546	0	1	0.000000	18.623897	7.470234	23.582568
547	0	1	0.000000	18.707764	6.014390	24.077630
548	0	1	0.000000	18.650710	5.869517	25.609739
549	0	2	0.000000	18.680951	7.615107	22.050460
550	0	2	0.000000	18.734577	4.413674	26.104801
551	0	1	0.000000	23.044537	34.097181	11.687181
552	0	1	0.000000	22.903545	35.477484	12.355376
553	0	1	0.000000	22.241420	35.435917	13.745146
554	0	2	0.000000	23.706663	34.138749	10.297411
555	0	2	0.000000	22.100427	36.816220	14.413342
556	0	1	0.000000	3.964783	25.424682	32.227231
557	0	1	0.000000	4.208884	24.579678	30.963119
558	0	1	0.000000	5.434361	23.651776	31.056944
559	0	2	0.000000	2.739306	26.352584	32.133406
560	0	2	0.000000	5.678463	22.806770	29.792831
561	0	1	0.000000	2.912990	24.401612	6.488391
562	0	1	0.000000	3.462498	25.832651	6.635931
563	0	1	0.000000	2.854168	26.619062	7.811980
564	0	2	0.000000	3.521321	23.615202	5.312341
565	0	2	0.000000	3.403675	28.050101	7.959521
566	0	1	0.000000	6.610710	15.536413	12.424460
567	0	1	0.000000	5.370377	16.151162	11.749733
568	0	1	0.000000	5.542624	16.412920	10.241948
569	0	2	0.000000	6.438463	15.274656	13.932245
570	0	2	0.000000	4.302291	17.027669	9.567219
571	0	1	0.000000	14.539098	32.421881	12.834016
572	0	1	0.000000	14.554275	32.060849	14.331021
573	0	1	0.000000	15.965359	31.987954	14.943498
574	0	2	0.000000	13.128014	32.494776	12.221538
575	0	2	0.000000	15.980538	31.626921	16.440504
576	0	1	0.000000	28.112836	3.998233	27.468141
577	0	1	0.000000	29.389873	3.504871	28.173385
578	0	1	0.000000	30.666023	4.260836	27.759187
579	0	2	0.000000	26.836686	3.242269	27.882339
580	0	2	0.000000	31.943061	3.767474	28.464430
581	0	1	0.000000	37.549250	29.690206	20.786484
582	0	1	0.000000	37.447846	30.200133	19.336901
583	0	1	0.000000	36.702554	29.243956	18.387235
584	0	2	0.000000	38.294542	30.646383	21.736151
585	0	2	0.000000	36.601149	29.753882	16.937651
586	0	1	0.000000	11.591131	26.710831	21.308653
587	0	1	0.000000	10.253211	26.923629	20.576336
588	0	1	0.000000	9.882374	25.786549	19.606218
589	0	2	0.000000	11.961968	27.847910	22.278771
590	0	2	0.000000	8.544455	25.999346	18.873901
591	0	1	0.000000	16.777574	31.286553	26.611527
592	0	1	0.000000	16.269876	30.637158	27.912346
593	0	1	0.000000	15.211694	29.539977	27.693157
594	0	2	0.000000	17.835755	32.383735	26.830716
595	0	2	0.000000	14.703996	28.890581	28.993976
596	0	1	0.000000	27.619572	28.735204	35.294814
597	0	1	0.000000	28.954377	28.315958	34.651284
598	0	1	0.000000	30.143177	28.297649	35.630068
599	0	2	0.000000	26.430772	28.753513	34.316030
600	0	2	0.000000	31.477982	27.878403	34.986540
601	0	1	0.000000	6.906193	13.129907	23.673078
602	0	1	0.000000	5.737130	13.939228	24.264594
603	0	1	0.000000	4.804287	13.118583	25.174509
604	0	2	0.000000	7.839036	13.950552	22.763163
605	0	2	0.000000	3.635223	13.927903	25.766025
606	0	1	0.000000	29.499171	24.155965	19.670355
607	0	1	0.000000	29.955963	25.612941	19.870756
608	0	1	0.000000	29.392275	26.277058	21.140718
609	0	2	0.000000	30.062859	23.491848	18.400392
610	0	2	0.000000	29.849068	27.734035	21.341120
611	0	1	0.000000	9.940285	25.978520	28.376149
612	0	1	0.000000	9.339540	25.125780	29.509083
613	0	1	0.000000	10.316791	24.093716	30.101892
614	0	2	0.000000	8.963033	27.010584	27.783340
615	0	2	0.000000	9.716046	23.240975	31.234825
616	0	1	0.000000	21.240051	13.544253	20.801645
617	0	1	0.000000	22.389163	14.027734	21.705740
618	0	1	0.000000	22.419227	15.552596	21.919024
619	0	2	0.000000	21.209987	12.019391	20.588362
620	0	2	0.000000	23.568339	16.036078	22.823119
621	0	1	0.000000	23.504888	23.786139	30.640249
622	0	1	0.000000	22.246570	24.202484	29.856098
623	0	1	0.000000	21.008841	23.335130	30.151604
624	0	2	0.000000	24.742617	24.653493	30.344743
625	0	2	0.000000	19.750523	23.751473	29.367453
626	0	1	0.000000	14.806528	24.639459	34.887756
627	0	1	0.000000	15.943533	25.196808	35.764215
628	0	1	0.000000	17.238011	24.364034	35.715077
629	0	2	0.000000	13.512049	25.472233	34.936894