box.lammps - created by mBuild; units = real

4500 atoms
4000 bonds
6500 angles
6000 dihedrals
0 impropers

5 atom types
5 bond types
7 angle types
4 dihedral types

0.000000 37.528800 xlo xhi
0.000000 37.586440 ylo yhi
0.000000 37.511120 zlo zhi
0.000000 0.000000 0.000000 xy xz yz

Masses

1	12.010780	# opls_135
2	1.007947	# opls_140
3	15.999430	# opls_154
4	1.007947	# opls_155
5	12.010780	# opls_157

Pair Coeffs # lj
#	epsilon (kcal/mol)		sigma (Angstrom)
1	0.06600		3.50000		# opls_135
2	0.03000		2.50000		# opls_140
3	0.17000		3.12000		# opls_154
4	0.00000		10.00000		# opls_155
5	0.06600		3.50000		# opls_157

Bond Coeffs # harmonic
#	k(kcal/mol/angstrom^2)		req(angstrom)
1	320.0		1.41		# opls_154	opls_157
2	268.0		1.529		# opls_135	opls_157
3	340.0		1.09		# opls_135	opls_140
4	553.0		0.945		# opls_154	opls_155
5	340.0		1.09		# opls_140	opls_157

Angle Coeffs # harmonic
#	k(kcal/mol/rad^2)		theteq(deg)
1	55.0		108.50000	# opls_155	opls_154	opls_157
2	37.5		110.70000	# opls_140	opls_135	opls_157
3	35.0		109.50000	# opls_140	opls_157	opls_154
4	37.5		110.70000	# opls_135	opls_157	opls_140
5	50.0		109.50000	# opls_135	opls_157	opls_154
6	33.0		107.80000	# opls_140	opls_157	opls_140
7	33.0		107.80000	# opls_140	opls_135	opls_140

Dihedral Coeffs # opls
#	f1(kcal/mol)	f2(kcal/mol)	f3(kcal/mol)	f4(kcal/mol)
1	0.00000	-0.00000		0.45000		-0.00000	# opls_155	opls_154	opls_157	opls_140
2	-0.00000	-0.00000		0.30000		-0.00000	# opls_140	opls_157	opls_135	opls_140
3	-0.35600	-0.17400		0.49200		-0.00000	# opls_135	opls_157	opls_154	opls_155
4	0.00000	-0.00000		0.46800		-0.00000	# opls_154	opls_157	opls_135	opls_140

Atoms # full

1	0	1	-0.180000	19.400049	33.620134	19.581169
2	0	5	0.145000	19.970444	32.688075	18.511710
3	0	3	-0.683000	19.646179	32.986318	17.172300
4	0	4	0.418000	19.756509	33.915545	17.040434
5	0	2	0.060000	19.640484	31.692224	18.807523
6	0	2	0.060000	21.058856	32.629767	18.503419
7	0	2	0.060000	20.087647	34.464761	19.537393
8	0	2	0.060000	19.485417	33.173050	20.571587
9	0	2	0.060000	18.361913	33.933359	19.470434
10	0	1	-0.180000	8.228710	26.748770	30.372155
11	0	5	0.145000	7.338664	26.075186	31.417109
12	0	3	-0.683000	7.724467	26.218255	32.765739
13	0	4	0.418000	7.957395	27.122158	32.913146
14	0	2	0.060000	7.289054	25.031303	31.107359
15	0	2	0.060000	6.303687	26.417077	31.410557
16	0	2	0.060000	7.894885	27.785165	30.422643
17	0	2	0.060000	8.004794	26.375778	29.372736
18	0	2	0.060000	9.307425	26.661106	30.501722
19	0	1	-0.180000	6.795005	3.107300	22.211097
20	0	5	0.145000	6.045796	3.962699	23.233253
21	0	3	-0.683000	6.044555	3.502425	24.566018
22	0	4	0.418000	6.922874	3.233063	24.787432
23	0	2	0.060000	5.039315	4.062104	22.826789
24	0	2	0.060000	6.414456	4.985032	23.317133
25	0	2	0.060000	7.829977	3.404417	22.380380
26	0	2	0.060000	6.528685	3.395133	21.194079
27	0	2	0.060000	6.665912	2.026672	22.271739
28	0	1	-0.180000	9.882744	24.295541	33.407017
29	0	5	0.145000	10.582728	25.434210	32.664534
30	0	3	-0.683000	10.993601	25.170527	31.341745
31	0	4	0.418000	10.286847	24.731389	30.893771
32	0	2	0.060000	11.414720	25.715687	33.310024
33	0	2	0.060000	9.984833	26.340653	32.569695
34	0	2	0.060000	8.868126	24.356818	33.013446
35	0	2	0.060000	9.837168	24.499612	34.476773
36	0	2	0.060000	10.302071	23.295196	33.299439
37	0	1	-0.180000	23.268262	21.097535	4.922452
38	0	5	0.145000	24.593023	20.363543	4.712481
39	0	3	-0.683000	24.910487	19.994188	3.389261
40	0	4	0.418000	24.728656	20.729683	2.824452
41	0	2	0.060000	24.543811	19.505711	5.383152
42	0	2	0.060000	25.470467	20.921985	5.038588
43	0	2	0.060000	23.524281	22.116790	4.633184
44	0	2	0.060000	22.994304	21.110309	5.977385
45	0	2	0.060000	22.398597	20.726121	4.380387
46	0	1	-0.180000	18.712687	17.235314	22.917750
47	0	5	0.145000	19.679992	16.876479	21.789306
48	0	3	-0.683000	20.753180	17.763822	21.567926
49	0	4	0.418000	21.128996	17.989225	22.405172
50	0	2	0.060000	19.047892	16.760662	20.908890
51	0	2	0.060000	20.169291	15.909962	21.909900
52	0	2	0.060000	19.256168	16.896775	23.799863
53	0	2	0.060000	17.797123	16.648227	22.845834
54	0	2	0.060000	18.406899	18.278099	23.002545
55	0	1	-0.180000	33.512912	13.404290	24.983059
56	0	5	0.145000	32.840796	12.655481	26.134307
57	0	3	-0.683000	33.677395	12.223493	27.183881
58	0	4	0.418000	34.259624	12.932675	27.409923
59	0	2	0.060000	32.312624	11.830047	25.657033
60	0	2	0.060000	32.064226	13.224634	26.645301
61	0	2	0.060000	33.618799	14.407826	25.395135
62	0	2	0.060000	32.849133	13.467398	24.120786
63	0	2	0.060000	34.461463	13.011866	24.616518
64	0	1	-0.180000	22.613240	27.294978	9.740663
65	0	5	0.145000	23.436802	28.578619	9.631863
66	0	3	-0.683000	22.780814	29.710117	9.105070
67	0	4	0.418000	21.929617	29.774759	9.510421
68	0	2	0.060000	24.313201	28.296886	9.048213
69	0	2	0.060000	23.837132	28.935106	10.580949
70	0	2	0.060000	22.043093	27.466877	10.653617
71	0	2	0.060000	23.258412	26.432726	9.909111
72	0	2	0.060000	21.968697	27.040708	8.899230
73	0	1	-0.180000	32.599607	23.767357	3.133552
74	0	5	0.145000	33.730569	24.559131	3.790702
75	0	3	-0.683000	33.372826	25.763687	4.430376
76	0	4	0.418000	32.597496	25.606007	4.947120
77	0	2	0.060000	34.460478	24.711450	2.995637
78	0	2	0.060000	34.270329	24.011098	4.562990
79	0	2	0.060000	32.154779	23.254949	3.986587
80	0	2	0.060000	32.997367	23.008093	2.460197
81	0	2	0.060000	31.859440	24.329876	2.564499
82	0	1	-0.180000	11.167480	5.908217	10.472026
83	0	5	0.145000	10.189977	6.276328	11.588632
84	0	3	-0.683000	8.895157	5.724406	11.505328
85	0	4	0.418000	8.976704	4.808949	11.285522
86	0	2	0.060000	10.177562	7.366217	11.597847
87	0	2	0.060000	10.523864	5.993205	12.586866
88	0	2	0.060000	11.502285	4.917629	10.779830
89	0	2	0.060000	12.033933	6.569492	10.480739
90	0	2	0.060000	10.785494	5.910535	9.451154
91	0	1	-0.180000	12.891036	20.768271	6.563399
92	0	5	0.145000	13.381757	22.077018	5.943560
93	0	3	-0.683000	14.013254	21.985521	4.686198
94	0	4	0.418000	13.499909	21.412277	4.137663
95	0	2	0.060000	14.028286	22.517701	6.702438
96	0	2	0.060000	12.597905	22.816948	5.781727
97	0	2	0.060000	11.952397	20.603564	6.034314
98	0	2	0.060000	12.658056	20.902207	7.619752
99	0	2	0.060000	13.552633	19.904453	6.498554
100	0	1	-0.180000	32.936954	17.141124	28.543763
101	0	5	0.145000	32.064280	16.357684	27.562698
102	0	3	-0.683000	31.787352	15.015152	27.892906
103	0	4	0.418000	31.552073	14.977264	28.807364
104	0	2	0.060000	32.571830	16.453565	26.602856
105	0	2	0.060000	31.076558	16.788901	27.399699
106	0	2	0.060000	32.220180	17.414224	29.318202
107	0	2	0.060000	33.301906	18.062044	28.088992
108	0	2	0.060000	33.808190	16.631958	28.955826
109	0	1	-0.180000	2.480087	6.377223	6.183492
110	0	5	0.145000	3.976405	6.662967	6.314674
111	0	3	-0.683000	4.428803	7.908292	5.832369
112	0	4	0.418000	3.832287	8.576912	6.132603
113	0	2	0.060000	4.463342	5.823277	5.818781
114	0	2	0.060000	4.348976	6.635751	7.338667
115	0	2	0.060000	2.068401	6.925321	7.030963
116	0	2	0.060000	2.271708	5.318740	6.339354
117	0	2	0.060000	1.997773	6.653761	5.245943
118	0	1	-0.180000	9.805427	17.741604	27.092608
119	0	5	0.145000	10.558387	18.752890	26.227635
120	0	3	-0.683000	10.317694	18.703239	24.839212
121	0	4	0.418000	9.385889	18.625327	24.702485
122	0	2	0.060000	11.609218	18.599401	26.473179
123	0	2	0.060000	10.361927	19.794144	26.483182
124	0	2	0.060000	8.823417	18.205887	27.183169
125	0	2	0.060000	10.239598	17.684928	28.090798
126	0	2	0.060000	9.740000	16.717914	26.723994
127	0	1	-0.180000	26.495209	25.374620	5.969695
128	0	5	0.145000	25.141938	25.510768	6.668228
129	0	3	-0.683000	25.157512	25.556483	8.077407
130	0	4	0.418000	25.845383	26.145560	8.347308
131	0	2	0.060000	24.547947	24.680735	6.285714
132	0	2	0.060000	24.583017	26.404405	6.390501
133	0	2	0.060000	26.868340	26.398466	5.994503
134	0	2	0.060000	26.366227	25.093109	4.924604
135	0	2	0.060000	27.209675	24.669868	6.395090
136	0	1	-0.180000	2.855962	32.156702	5.953683
137	0	5	0.145000	3.994528	31.660880	5.061689
138	0	3	-0.683000	5.231316	31.412430	5.691567
139	0	4	0.418000	5.066687	30.933978	6.489693
140	0	2	0.060000	4.072917	32.407756	4.271671
141	0	2	0.060000	3.781259	30.726912	4.541756
142	0	2	0.060000	2.507093	31.231762	6.412900
143	0	2	0.060000	2.039413	32.558520	5.353774
144	0	2	0.060000	3.097060	32.915730	6.697891
145	0	1	-0.180000	3.425243	12.327746	25.733975
146	0	5	0.145000	2.742899	11.741564	26.970350
147	0	3	-0.683000	3.578083	11.402084	28.054480
148	0	4	0.418000	4.188457	12.110368	28.191599
149	0	2	0.060000	2.178861	10.887028	26.596549
150	0	2	0.060000	1.994448	12.394107	27.419927
151	0	2	0.060000	3.572778	13.367311	26.026622
152	0	2	0.060000	2.752153	12.316111	24.876703
153	0	2	0.060000	4.353902	11.860824	25.405837
154	0	1	-0.180000	22.894457	27.002096	18.810900
155	0	5	0.145000	23.886735	27.284832	17.682507
156	0	3	-0.683000	23.417573	27.103380	16.365283
157	0	4	0.418000	22.561683	27.498353	16.298400
158	0	2	0.060000	24.748361	26.656197	17.907260
159	0	2	0.060000	24.278403	28.302014	17.675594
160	0	2	0.060000	22.303149	27.917592	18.828912
161	0	2	0.060000	23.408519	26.919565	19.768516
162	0	2	0.060000	22.268874	26.114453	18.716912
163	0	1	-0.180000	9.222604	4.023135	31.264873
164	0	5	0.145000	8.217877	4.119617	32.413368
165	0	3	-0.683000	8.303940	3.131767	33.415797
166	0	4	0.418000	9.213978	3.020268	33.644758
167	0	2	0.060000	7.242294	4.134988	31.927469
168	0	2	0.060000	8.265456	5.054340	32.972063
169	0	2	0.060000	10.117117	4.461461	31.707389
170	0	2	0.060000	8.920417	4.655842	30.430329
171	0	2	0.060000	9.415712	3.033741	30.850256
172	0	1	-0.180000	24.751328	27.579508	12.397417
173	0	5	0.145000	26.023169	27.347035	11.581204
174	0	3	-0.683000	27.160447	28.092980	11.953067
175	0	4	0.418000	27.238759	28.064662	12.894390
176	0	2	0.060000	25.726465	27.528487	10.548180
177	0	2	0.060000	26.379487	26.316969	11.591746
178	0	2	0.060000	24.935916	26.973350	13.284324
179	0	2	0.060000	23.881431	27.165835	11.887266
180	0	2	0.060000	24.501092	28.609333	12.652250
181	0	1	-0.180000	30.796948	15.566890	24.153695
182	0	5	0.145000	29.947528	14.911661	25.243184
183	0	3	-0.683000	29.785448	13.513151	25.165612
184	0	4	0.418000	30.628185	13.126761	24.982523
185	0	2	0.060000	28.996343	15.442922	25.209926
186	0	2	0.060000	30.319258	15.069280	26.255648
187	0	2	0.060000	31.809755	15.367473	24.503778
188	0	2	0.060000	30.654236	16.647488	24.147276
189	0	2	0.060000	30.645588	15.227714	23.128928
190	0	1	-0.180000	24.762737	30.139056	33.847805
191	0	5	0.145000	23.534294	29.674281	33.065029
192	0	3	-0.683000	22.757084	30.677500	32.450527
193	0	4	0.418000	23.341168	31.283069	32.020227
194	0	2	0.060000	22.960194	29.081233	33.776928
195	0	2	0.060000	23.757705	28.988634	32.247664
196	0	2	0.060000	25.490444	30.303335	33.053100
197	0	2	0.060000	25.141759	29.340583	34.485679
198	0	2	0.060000	24.648585	31.016782	34.483937
199	0	1	-0.180000	11.200394	32.479276	26.306310
200	0	5	0.145000	10.111991	33.539509	26.135690
201	0	3	-0.683000	9.699278	34.217773	27.300912
202	0	4	0.418000	10.469895	34.463022	27.789816
203	0	2	0.060000	9.290429	33.016846	25.645835
204	0	2	0.060000	10.376288	34.345919	25.451615
205	0	2	0.060000	12.104853	33.086128	26.348577
206	0	2	0.060000	11.266712	31.845025	25.422326
207	0	2	0.060000	11.117889	31.810256	27.162875
208	0	1	-0.180000	30.304184	2.963781	33.965963
209	0	5	0.145000	30.031849	2.952936	32.461456
210	0	3	-0.683000	29.105736	1.999186	31.991569
211	0	4	0.418000	28.356368	2.004953	32.567276
212	0	2	0.060000	31.014181	2.839647	32.002887
213	0	2	0.060000	29.648494	3.894976	32.069398
214	0	2	0.060000	29.446217	3.516484	34.348735
215	0	2	0.060000	31.200157	3.541009	34.194306
216	0	2	0.060000	30.421695	1.999589	34.460557
217	0	1	-0.180000	21.132322	27.856356	25.406597
218	0	5	0.145000	21.010309	27.147566	24.057317
219	0	3	-0.683000	22.189471	27.031904	23.292911
220	0	4	0.418000	22.888200	26.755185	23.865824
221	0	2	0.060000	20.224508	27.688627	23.530187
222	0	2	0.060000	20.646987	26.121931	24.121983
223	0	2	0.060000	21.540687	27.069673	26.041003
224	0	2	0.060000	20.149474	28.121100	25.796495
225	0	2	0.060000	21.735360	28.763618	25.442934
226	0	1	-0.180000	26.783124	22.022121	22.020185
227	0	5	0.145000	27.712350	20.848266	21.709653
228	0	3	-0.683000	28.127285	20.061411	22.803639
229	0	4	0.418000	27.373060	19.885212	23.345048
230	0	2	0.060000	28.551822	21.293232	21.175435
231	0	2	0.060000	27.295252	20.119113	21.015048
232	0	2	0.060000	25.815634	21.528562	22.112198
233	0	2	0.060000	26.727450	22.707616	21.174551
234	0	2	0.060000	27.016803	22.627727	22.895818
235	0	1	-0.180000	31.231266	28.103902	12.076334
236	0	5	0.145000	31.730348	28.806470	13.339323
237	0	3	-0.683000	31.514682	30.197646	13.418298
238	0	4	0.418000	30.627770	30.376107	13.145234
239	0	2	0.060000	32.786686	28.545246	13.402628
240	0	2	0.060000	31.294057	28.428142	14.263784
241	0	2	0.060000	30.167361	27.990114	12.284329
242	0	2	0.060000	31.661818	27.106180	11.991042
243	0	2	0.060000	31.409397	28.601378	11.122979
244	0	1	-0.180000	33.664213	14.584513	8.152837
245	0	5	0.145000	33.816365	15.962920	7.508888
246	0	3	-0.683000	34.287183	15.993563	6.180163
247	0	4	0.418000	33.824771	15.333626	5.686520
248	0	2	0.060000	34.460380	16.517860	8.191079
249	0	2	0.060000	32.893164	16.540780	7.465439
250	0	2	0.060000	32.713330	14.244994	7.742165
251	0	2	0.060000	33.547677	14.671254	9.233113
252	0	2	0.060000	34.462593	13.861941	7.983789
253	0	1	-0.180000	18.092723	12.063334	23.251340
254	0	5	0.145000	19.301676	12.757184	22.622984
255	0	3	-0.683000	19.069455	14.007433	22.013831
256	0	4	0.418000	18.526381	14.522121	22.591059
257	0	2	0.060000	19.710417	12.024951	21.926663
258	0	2	0.060000	20.113508	12.960862	23.321236
259	0	2	0.060000	18.003239	12.581856	24.205924
260	0	2	0.060000	18.311470	11.016308	23.461069
261	0	2	0.060000	17.158632	12.078839	22.689796
262	0	1	-0.180000	5.599795	32.254950	12.901540
263	0	5	0.145000	4.450877	31.700940	12.058400
264	0	3	-0.683000	4.773943	31.257996	10.759344
265	0	4	0.418000	5.562624	30.739921	10.810375
266	0	2	0.060000	3.703386	32.494242	12.053279
267	0	2	0.060000	3.943975	30.843567	12.501202
268	0	2	0.060000	6.076646	31.344002	13.263325
269	0	2	0.060000	5.219769	32.797500	13.767173
270	0	2	0.060000	6.309614	32.917889	12.406801
271	0	1	-0.180000	21.668862	23.004909	26.230239
272	0	5	0.145000	21.716769	24.358613	26.939474
273	0	3	-0.683000	22.707569	25.265010	26.509498
274	0	4	0.418000	22.714113	25.270733	25.564538
275	0	2	0.060000	21.808217	24.113887	27.997701
276	0	2	0.060000	20.794708	24.935215	26.865682
277	0	2	0.060000	21.135874	23.248109	25.311066
278	0	2	0.060000	21.059865	22.294743	26.789603
279	0	2	0.060000	22.619360	22.509751	26.031570
280	0	1	-0.180000	4.209255	4.079162	19.552059
281	0	5	0.145000	2.861835	3.370710	19.694815
282	0	3	-0.683000	2.400385	2.653597	18.571903
283	0	4	0.418000	3.120554	2.148834	18.226077
284	0	2	0.060000	2.168353	4.153576	20.001899
285	0	2	0.060000	2.825821	2.635695	20.498908
286	0	2	0.060000	4.913760	3.261893	19.706484
287	0	2	0.060000	4.355781	4.800631	20.355871
288	0	2	0.060000	4.399300	4.610564	18.619539
289	0	1	-0.180000	23.401763	20.967452	14.474834
290	0	5	0.145000	22.631908	19.705694	14.083534
291	0	3	-0.683000	21.745717	19.816401	12.992422
292	0	4	0.418000	22.184396	20.287974	12.300898
293	0	2	0.060000	22.128081	19.393654	14.998350
294	0	2	0.060000	23.265396	18.861082	13.812547
295	0	2	0.060000	24.207770	20.979191	13.741132
296	0	2	0.060000	23.851960	20.857430	15.461403
297	0	2	0.060000	22.849365	21.907005	14.488745
298	0	1	-0.180000	17.079683	25.491342	13.025580
299	0	5	0.145000	18.073324	24.490189	13.615661
300	0	3	-0.683000	18.257464	24.528197	15.013075
301	0	4	0.418000	17.407852	24.587665	15.422524
302	0	2	0.060000	19.000164	24.664894	13.069271
303	0	2	0.060000	17.826874	23.446696	13.419458
304	0	2	0.060000	16.123313	25.008920	13.227393
305	0	2	0.060000	17.194933	25.561340	11.943952
306	0	2	0.060000	17.110294	26.511716	13.407677
307	0	1	-0.180000	11.537228	2.868211	25.902075
308	0	5	0.145000	11.608667	2.957685	27.426777
309	0	3	-0.683000	10.502382	3.538216	28.080410
310	0	4	0.418000	9.713589	3.178643	27.704195
311	0	2	0.060000	12.537899	3.490029	27.629840
312	0	2	0.060000	11.723868	1.995835	27.926462
313	0	2	0.060000	10.909723	1.989227	25.754671
314	0	2	0.060000	12.518171	2.650953	25.479404
315	0	2	0.060000	11.154137	3.737054	25.366864
316	0	1	-0.180000	18.699795	23.738315	6.206521
317	0	5	0.145000	18.786523	22.217315	6.076663
318	0	3	-0.683000	18.074597	21.630334	5.010487
319	0	4	0.418000	18.232990	22.141211	4.231422
320	0	2	0.060000	18.468626	21.837764	7.047734
321	0	2	0.060000	19.799533	21.836431	5.946856
322	0	2	0.060000	19.420111	24.072098	5.459637
323	0	2	0.060000	19.057357	24.065763	7.182753
324	0	2	0.060000	17.721873	24.198125	6.063900
325	0	1	-0.180000	16.874172	28.014586	23.140586
326	0	5	0.145000	17.775476	29.038078	23.831919
327	0	3	-0.683000	18.530108	29.885876	22.995327
328	0	4	0.418000	17.965592	30.201467	22.306308
329	0	2	0.060000	18.402510	28.448211	24.500485
330	0	2	0.060000	17.245986	29.730975	24.485864
331	0	2	0.060000	16.009203	28.619628	22.868822
332	0	2	0.060000	16.539188	27.253432	23.845236
333	0	2	0.060000	17.286028	27.483427	22.282482
334	0	1	-0.180000	19.758235	16.786662	29.852784
335	0	5	0.145000	20.818507	17.238781	30.857391
336	0	3	-0.683000	20.793780	16.623096	32.125633
337	0	4	0.418000	20.683662	15.692788	32.001432
338	0	2	0.060000	20.699346	18.320550	30.917993
339	0	2	0.060000	21.844898	17.090056	30.521961
340	0	2	0.060000	20.182253	15.855128	29.477877
341	0	2	0.060000	19.693724	17.482773	29.016501
342	0	2	0.060000	18.742147	16.651984	30.223630
343	0	1	-0.180000	10.033272	15.716710	23.303317
344	0	5	0.145000	8.569207	15.366456	23.035623
345	0	3	-0.683000	8.199145	15.174815	21.688609
346	0	4	0.418000	8.855977	14.636209	21.274485
347	0	2	0.060000	8.001492	16.165042	23.513178
348	0	2	0.060000	8.230965	14.453188	23.525157
349	0	2	0.060000	10.515294	14.740839	23.244717
350	0	2	0.060000	10.163601	16.091353	24.318579
351	0	2	0.060000	10.503284	16.444022	22.641347
352	0	1	-0.180000	6.525743	9.149186	20.005806
353	0	5	0.145000	5.406727	8.147817	19.717901
354	0	3	-0.683000	5.148660	7.857745	18.362402
355	0	4	0.418000	5.975536	7.720425	17.926003
356	0	2	0.060000	4.533885	8.552967	20.229855
357	0	2	0.060000	5.560004	7.165167	20.164011
358	0	2	0.060000	7.417096	8.530137	19.903973
359	0	2	0.060000	6.479156	9.497599	21.037571
360	0	2	0.060000	6.574147	10.039838	19.379312
361	0	1	-0.180000	2.629210	18.248452	31.865712
362	0	5	0.145000	2.866003	17.129127	30.851381
363	0	3	-0.683000	3.892965	16.210101	31.149469
364	0	4	0.418000	3.814099	15.961797	32.057847
365	0	2	0.060000	3.030292	17.643468	29.904513
366	0	2	0.060000	1.998167	16.493350	30.676000
367	0	2	0.060000	2.039595	17.742203	32.630022
368	0	2	0.060000	2.010691	19.036827	31.436761
369	0	2	0.060000	3.507992	18.737464	32.286079
370	0	1	-0.180000	8.321577	30.612416	23.660478
371	0	5	0.145000	7.211850	30.786555	22.623170
372	0	3	-0.683000	7.094608	32.059223	22.027612
373	0	4	0.418000	7.959738	32.356288	21.790277
374	0	2	0.060000	6.300630	30.483230	23.138696
375	0	2	0.060000	7.286901	30.112062	21.770212
376	0	2	0.060000	9.200283	30.468021	23.031884
377	0	2	0.060000	8.173071	29.700441	24.238705
378	0	2	0.060000	8.463886	31.417387	24.381496
379	0	1	-0.180000	13.753356	31.289518	3.202651
380	0	5	0.145000	13.893882	30.343335	4.395470
381	0	3	-0.683000	15.150818	30.309723	5.033513
382	0	4	0.418000	15.448603	31.199133	5.148836
383	0	2	0.060000	13.596230	29.367537	4.011648
384	0	2	0.060000	13.199508	30.545400	5.211022
385	0	2	0.060000	13.600444	32.251514	3.691819
386	0	2	0.060000	12.854558	31.061378	2.629750
387	0	2	0.060000	14.576618	31.321303	2.488980
388	0	1	-0.180000	2.921929	11.792143	32.465660
389	0	5	0.145000	2.644139	10.874899	33.657013
390	0	3	-0.683000	3.767368	10.355658	34.332930
391	0	4	0.418000	4.386366	11.057917	34.462158
392	0	2	0.060000	1.999511	10.091257	33.258947
393	0	2	0.060000	2.060263	11.338645	34.452085
394	0	2	0.060000	3.143691	12.740448	32.955193
395	0	2	0.060000	2.023405	11.930644	31.864351
396	0	2	0.060000	3.712911	11.493702	31.777634
397	0	1	-0.180000	16.399721	5.655666	10.033284
398	0	5	0.145000	16.528485	4.180987	10.416125
399	0	3	-0.683000	16.567871	3.884725	11.794093
400	0	4	0.418000	15.892701	4.386544	12.224614
401	0	2	0.060000	17.418756	3.835099	9.890886
402	0	2	0.060000	15.722061	3.549794	10.042781
403	0	2	0.060000	15.332381	5.832917	10.165453
404	0	2	0.060000	16.633423	5.805084	8.979169
405	0	2	0.060000	17.003985	6.372106	10.589771
406	0	1	-0.180000	16.274394	27.519776	2.874129
407	0	5	0.145000	16.707640	27.298150	4.323613
408	0	3	-0.683000	17.665731	28.192864	4.842907
409	0	4	0.418000	17.417402	29.070150	4.594460
410	0	2	0.060000	17.045255	26.262279	4.356575
411	0	2	0.060000	15.893512	27.348822	5.046619
412	0	2	0.060000	15.553862	28.331617	2.973384
413	0	2	0.060000	15.743095	26.648942	2.490112
414	0	2	0.060000	17.053744	27.752761	2.148574
415	0	1	-0.180000	25.161297	19.236848	19.821779
416	0	5	0.145000	25.910292	20.391847	19.156339
417	0	3	-0.683000	27.258926	20.160603	18.816004
418	0	4	0.418000	27.319719	19.311502	18.405690
419	0	2	0.060000	25.792600	21.230385	19.842706
420	0	2	0.060000	25.466437	20.733098	18.221111
421	0	2	0.060000	24.903333	18.610600	18.967747
422	0	2	0.060000	24.231455	19.584886	20.271627
423	0	2	0.060000	25.688867	18.676530	20.593668
424	0	1	-0.180000	8.258061	27.746152	2.868306
425	0	5	0.145000	6.821404	28.231539	2.672753
426	0	3	-0.683000	5.943147	27.358049	1.999108
427	0	4	0.418000	6.062581	26.488795	2.350048
428	0	2	0.060000	6.919947	29.192696	2.168210
429	0	2	0.060000	6.295064	28.456636	3.600335
430	0	2	0.060000	8.159324	27.082614	3.727417
431	0	2	0.060000	8.910324	28.570034	3.157910
432	0	2	0.060000	8.738801	27.251580	2.024276
433	0	1	-0.180000	13.508028	12.996456	10.760721
434	0	5	0.145000	13.386414	12.412060	9.353057
435	0	3	-0.683000	12.135618	11.865817	8.999160
436	0	4	0.418000	11.460579	12.464955	9.279126
437	0	2	0.060000	14.193020	11.682047	9.285496
438	0	2	0.060000	13.588421	13.125014	8.553682
439	0	2	0.060000	13.044089	13.975586	10.641691
440	0	2	0.060000	14.553230	13.154053	11.026835
441	0	2	0.060000	13.061537	12.430390	11.578225
442	0	1	-0.180000	6.687267	28.600958	12.981848
443	0	5	0.145000	7.542606	29.169328	11.849074
444	0	3	-0.683000	7.260547	28.705798	10.547652
445	0	4	0.418000	6.323240	28.711845	10.427469
446	0	2	0.060000	8.570533	28.965889	12.149198
447	0	2	0.060000	7.490809	30.253597	11.750134
448	0	2	0.060000	5.777131	29.195167	12.900171
449	0	2	0.060000	7.136771	28.813114	13.951919
450	0	2	0.060000	6.478797	27.531236	12.963623
451	0	1	-0.180000	22.047939	27.909565	29.880669
452	0	5	0.145000	21.854719	27.565149	28.403554
453	0	3	-0.683000	20.549662	27.216704	27.999163
454	0	4	0.418000	19.945733	27.834282	28.382428
455	0	2	0.060000	22.576445	26.772265	28.207229
456	0	2	0.060000	22.128420	28.366911	27.717715
457	0	2	0.060000	21.692867	28.939252	29.922771
458	0	2	0.060000	23.105698	27.911726	30.143807
459	0	2	0.060000	21.547351	27.275425	30.612364
460	0	1	-0.180000	27.065624	13.871860	29.155672
461	0	5	0.145000	27.805941	13.429369	27.893151
462	0	3	-0.683000	28.108985	14.433638	26.950960
463	0	4	0.418000	28.453065	15.181450	27.415084
464	0	2	0.060000	27.186619	12.637419	27.472018
465	0	2	0.060000	28.770383	12.957929	28.082109
466	0	2	0.060000	27.873398	14.283205	29.760981
467	0	2	0.060000	26.656377	13.012706	29.687152
468	0	2	0.060000	26.246313	14.580294	29.033409
469	0	1	-0.180000	14.373898	33.681923	28.403090
470	0	5	0.145000	14.216337	33.456096	29.907085
471	0	3	-0.683000	13.093463	32.711154	30.322217
472	0	4	0.418000	13.014791	31.955484	29.760257
473	0	2	0.060000	14.235511	34.455872	30.340879
474	0	2	0.060000	15.053601	32.935002	30.371369
475	0	2	0.060000	14.802450	32.735170	28.074297
476	0	2	0.060000	15.104921	34.465154	28.202455
477	0	2	0.060000	13.478015	33.941655	27.839147
478	0	1	-0.180000	2.881194	27.082924	27.394236
479	0	5	0.145000	2.825716	27.379609	25.895327
480	0	3	-0.683000	2.718981	28.734739	25.520697
481	0	4	0.418000	3.331186	29.234614	26.038727
482	0	2	0.060000	1.995036	26.779093	25.524588
483	0	2	0.060000	3.693834	27.028656	25.337373
484	0	2	0.060000	3.924102	27.294841	27.629899
485	0	2	0.060000	2.705185	26.024724	27.587457
486	0	2	0.060000	2.197232	27.634234	28.039489
487	0	1	-0.180000	7.924347	5.861474	20.194172
488	0	5	0.145000	8.678846	6.568362	19.067732
489	0	3	-0.683000	9.488951	5.761056	18.243048
490	0	4	0.418000	9.000339	4.984601	18.016329
491	0	2	0.060000	9.245796	7.355244	19.565207
492	0	2	0.060000	8.037100	7.092671	18.359655
493	0	2	0.060000	7.071009	5.436935	19.665320
494	0	2	0.060000	7.542242	6.581855	20.917461
495	0	2	0.060000	8.467054	5.107374	20.764174
496	0	1	-0.180000	14.945519	4.061110	16.732272
497	0	5	0.145000	14.794693	2.539701	16.712435
498	0	3	-0.683000	13.953257	1.998833	15.718672
499	0	4	0.418000	14.150811	2.425153	14.898764
500	0	2	0.060000	14.468474	2.280465	17.719647
501	0	2	0.060000	15.731165	1.999044	16.575242
502	0	2	0.060000	15.672564	4.228278	15.937563
503	0	2	0.060000	15.393568	4.394791	17.668226
504	0	2	0.060000	14.042978	4.655688	16.590864
505	0	1	-0.180000	12.551772	15.060681	20.423463
506	0	5	0.145000	13.220015	13.805571	20.985581
507	0	3	-0.683000	13.639595	13.858926	22.330654
508	0	4	0.418000	12.946038	14.246400	22.842382
509	0	2	0.060000	14.043016	13.599718	20.301189
510	0	2	0.060000	12.596790	12.912086	20.948367
511	0	2	0.060000	11.536243	14.970083	20.808947
512	0	2	0.060000	12.499298	15.018616	19.335540
513	0	2	0.060000	12.999375	16.021997	20.675696
514	0	1	-0.180000	9.819516	30.500602	5.190924
515	0	5	0.145000	9.870915	31.327047	3.905555
516	0	3	-0.683000	9.072801	30.880598	2.832328
517	0	4	0.418000	8.218795	30.658341	3.170410
518	0	2	0.060000	10.928807	31.371231	3.646692
519	0	2	0.060000	9.571095	32.367543	4.030394
520	0	2	0.060000	8.895518	30.851491	5.650498
521	0	2	0.060000	10.642282	30.764416	5.855424
522	0	2	0.060000	9.838035	29.415476	5.089646
523	0	1	-0.180000	14.537789	20.543481	26.421869
524	0	5	0.145000	15.858389	20.359878	27.170289
525	0	3	-0.683000	17.016081	20.194956	26.382465
526	0	4	0.418000	16.996816	20.836883	25.689223
527	0	2	0.060000	15.684452	19.514338	27.835802
528	0	2	0.060000	16.116254	21.186696	27.832096
529	0	2	0.060000	14.576476	21.597522	26.146908
530	0	2	0.060000	13.689216	20.405731	27.091981
531	0	2	0.060000	14.358430	19.903139	25.558220
532	0	1	-0.180000	5.018963	3.159742	33.408406
533	0	5	0.145000	4.024177	4.320247	33.446526
534	0	3	-0.683000	2.763410	4.094297	32.857009
535	0	4	0.418000	2.452050	3.247597	33.138395
536	0	2	0.060000	4.554250	5.154740	32.987460
537	0	2	0.060000	3.777731	4.665442	34.450625
538	0	2	0.060000	4.674752	2.537487	34.234495
539	0	2	0.060000	6.025448	3.502956	33.647766
540	0	2	0.060000	5.096031	2.596586	32.478345
541	0	1	-0.180000	9.683647	20.822940	33.802075
542	0	5	0.145000	10.942767	21.076390	32.972494
543	0	3	-0.683000	11.951310	21.857481	33.573206
544	0	4	0.418000	12.070914	21.555645	34.460683
545	0	2	0.060000	10.578504	21.511815	32.042003
546	0	2	0.060000	11.468459	20.170976	32.669202
547	0	2	0.060000	10.003552	20.015480	34.460688
548	0	2	0.060000	8.876619	20.441590	33.176472
549	0	2	0.060000	9.273087	21.665069	34.359173
550	0	1	-0.180000	33.366775	30.287467	21.850821
551	0	5	0.145000	33.781958	29.665994	23.184696
552	0	3	-0.683000	34.462437	30.505167	24.090706
553	0	4	0.418000	34.012105	31.335402	24.121294
554	0	2	0.060000	34.367313	28.788158	22.911090
555	0	2	0.060000	32.952252	29.274949	23.773578
556	0	2	0.060000	32.461967	30.830273	22.124293
557	0	2	0.060000	33.087482	29.516059	21.133168
558	0	2	0.060000	34.091698	30.929321	21.350215
559	0	1	-0.180000	26.776073	12.005153	6.718177
560	0	5	0.145000	26.046388	12.687575	5.560728
561	0	3	-0.683000	26.099981	12.041680	4.308504
562	0	4	0.418000	25.933957	11.121073	4.442455
563	0	2	0.060000	26.461363	13.694927	5.527045
564	0	2	0.060000	24.978908	12.831596	5.727621
565	0	2	0.060000	26.063317	11.235621	7.014660
566	0	2	0.060000	26.895936	12.688737	7.558681
567	0	2	0.060000	27.762659	11.589743	6.512797
568	0	1	-0.180000	18.475762	3.722036	22.612584
569	0	5	0.145000	18.576322	2.639961	23.688143
570	0	3	-0.683000	18.771874	3.079563	25.013521
571	0	4	0.418000	18.181836	3.799346	25.177208
572	0	2	0.060000	19.375617	1.982602	23.345937
573	0	2	0.060000	17.698770	1.997396	23.759716
574	0	2	0.060000	17.443534	4.055155	22.720469
575	0	2	0.060000	18.583697	3.291357	21.617111
576	0	2	0.060000	19.180103	4.551934	22.669780
577	0	1	-0.180000	33.440980	3.163541	10.035191
578	0	5	0.145000	33.392376	4.690503	10.097245
579	0	3	-0.683000	32.886778	5.355496	8.961343
580	0	4	0.418000	32.103102	4.908337	8.680408
581	0	2	0.060000	34.412904	4.990761	10.334870
582	0	2	0.060000	32.788431	5.086065	10.913880
583	0	2	0.060000	32.409017	2.893533	10.259356
584	0	2	0.060000	34.069677	2.762366	10.830112
585	0	2	0.060000	33.788313	2.710911	9.106437
586	0	1	-0.180000	24.773811	4.154914	17.817119
587	0	5	0.145000	24.576358	2.770599	18.435594
588	0	3	-0.683000	23.517965	1.992391	17.923428
589	0	4	0.418000	23.539931	2.046170	16.980215
590	0	2	0.060000	24.476006	2.956634	19.504902
591	0	2	0.060000	25.441595	2.113582	18.347253
592	0	2	0.060000	25.309390	3.919207	16.897499
593	0	2	0.060000	25.429765	4.766906	18.436223
594	0	2	0.060000	23.880944	4.750728	17.627668
595	0	1	-0.180000	20.710544	19.262362	26.836781
596	0	5	0.145000	21.344612	19.692025	25.513462
597	0	3	-0.683000	20.953490	18.978690	24.361814
598	0	4	0.418000	20.013921	18.879109	24.379649
599	0	2	0.060000	22.418780	19.638703	25.690714
600	0	2	0.060000	21.158008	20.731772	25.244731
601	0	2	0.060000	19.735950	19.748313	26.790729
602	0	2	0.060000	21.252961	19.684853	27.682585
603	0	2	0.060000	20.624122	18.192503	27.026598
604	0	1	-0.180000	28.469685	5.693925	4.226309
605	0	5	0.145000	27.394164	5.173819	5.180547
606	0	3	-0.683000	27.774733	4.991046	6.525864
607	0	4	0.418000	28.267100	5.749514	6.800320
608	0	2	0.060000	27.037714	4.252230	4.720422
609	0	2	0.060000	26.511763	5.809990	5.249580
610	0	2	0.060000	28.464375	6.763126	4.438167
611	0	2	0.060000	28.165866	5.559284	3.188202
612	0	2	0.060000	29.467986	5.265536	4.315616